 Gaussian 09, Revision A.01,
 Gaussian 09:  EM64L-G09RevA.01  8-May-2009

 ------------------------------
 #HF/6-31G* Opt=Z-matrix NoSymm
 ------------------------------

 ------------------------------
 water interaction with atom F8
 ------------------------------
 Symbolic Z-matrix:
 Charge =  0 Multiplicity = 1

 SCF Done:  E(RHF) =  -1154.67413402     A.U. after   15 cycles
 SCF Done:  E(RHF) =  -1154.67413449     A.U. after    5 cycles
 SCF Done:  E(RHF) =  -1154.67413530     A.U. after    6 cycles
 SCF Done:  E(RHF) =  -1154.67413640     A.U. after    6 cycles
 SCF Done:  E(RHF) =  -1154.67413686     A.U. after    6 cycles
 Optimization completed.
    -- Stationary point found.

                         Z-Matrix orientation:
 ---------------------------------------------------------------------
 Center     Atomic      Atomic             Coordinates (Angstroms)
 Number     Number       Type             X           Y           Z
 ---------------------------------------------------------------------
      1          9           0       -1.969300    2.053680    0.000070
      2          6           0       -1.222250    0.944230    0.000030
      3          6           0        0.140030    1.057400   -0.000020
      4          6           0        0.927950   -0.123640   -0.000080
      5          6           0        2.414660   -0.018650   -0.000010
      6          9           0        3.007080   -1.234610   -0.000560
      7          9           0        2.858290    0.654480   -1.086020
      8          9           0        2.858270    0.653500    1.086650
      9          6           0        0.306540   -1.341490   -0.000090
     10          7           0       -1.054170   -1.389970   -0.000060
     11          6           0       -1.930500   -0.312100    0.000000
     12         16           0       -3.570980   -0.506610    0.000030
     13          1           0        0.596860    2.043100   -0.000020
     14          1           0        0.831760   -2.288990   -0.000150
     15          1           0       -1.521480   -2.296390   -0.000090
     16         -1           0        1.915537    0.771037    1.398802
     17         -1           0        1.587558    0.274088    0.595390
     18          1           0        3.638480    1.835661    2.997841
     19         -1           0        2.695747    1.953197    3.309993
     20          8           0        3.952422    2.311340    3.766867
     21          1           0        3.157571    2.539514    4.248925
 ---------------------------------------------------------------------

 Alpha  occ. eigenvalues --  -91.90867 -26.37468 -26.37321 -26.36514 -26.33853
 Alpha  occ. eigenvalues --  -20.55734 -15.69129 -11.55009 -11.38232 -11.37633
 Alpha  occ. eigenvalues --  -11.36624 -11.31685 -11.30827  -8.91954  -6.60281
 Alpha  occ. eigenvalues --   -6.60005  -6.59878  -1.74948  -1.65957  -1.65290
 Alpha  occ. eigenvalues --   -1.65104  -1.35966  -1.33926  -1.17642  -1.12498
 Alpha  occ. eigenvalues --   -1.03584  -0.97754  -0.93149  -0.88717  -0.85460
 Alpha  occ. eigenvalues --   -0.84538  -0.84234  -0.77512  -0.76372  -0.74309
 Alpha  occ. eigenvalues --   -0.73160  -0.72367  -0.71727  -0.70717  -0.70438
 Alpha  occ. eigenvalues --   -0.68495  -0.68213  -0.66984  -0.64528  -0.62944
 Alpha  occ. eigenvalues --   -0.61263  -0.59902  -0.56839  -0.52969  -0.49537
 Alpha  occ. eigenvalues --   -0.47071  -0.43687  -0.34486  -0.31387
 Alpha virt. eigenvalues --    0.04045   0.08245   0.17297   0.21445   0.24078
 Alpha virt. eigenvalues --    0.24834   0.26012   0.26124   0.29121   0.31203
 Alpha virt. eigenvalues --    0.33505   0.34960   0.38890   0.40797   0.42109

 Mulliken atomic charges:
              1
     1  F   -0.359452
     2  C    0.407279
     3  C   -0.177298
     4  C   -0.304609
     5  C    1.211870
     6  F   -0.380818
     7  F   -0.370077
     8  F   -0.380604
     9  C    0.174898
    10  N   -0.779470
    11  C    0.180417
    12  S   -0.225386
    13  H    0.279610
    14  H    0.289707
    15  H    0.442680
    16  H    0.437614
    17  O   -0.876645
    18  H    0.430282
 Sum of Mulliken atomic charges =   0.00000

 Dipole moment (field-independent basis, Debye):
    X=              1.2177    Y=             -3.2775    Z=             -0.7684  Tot=              3.5799
 Quadrupole moment (field-independent basis, Debye-Ang):
   XX=           -120.7879   YY=            -73.4207   ZZ=            -84.8936
   XY=             -5.2062   XZ=            -11.1044   YZ=             -2.0935

 Normal termination of Gaussian 09 at Fri Sep 24 08:11:33 2021.
