 Gaussian 09, Revision A.01,
 Gaussian 09:  EM64L-G09RevA.01  8-May-2009

 -------------------------------
 #MP2/6-31G* Opt=Z-matrix NoSymm
 -------------------------------

 -------------------------------
 water interaction with atom S12
 -------------------------------
 Symbolic Z-matrix:
 Charge =  0 Multiplicity = 1

 SCF Done:  E(RHF) =  -1154.67434518     A.U. after   15 cycles
 E2 =    -0.1911188145D+01 EUMP2 =    -0.11565855333293D+04
 SCF Done:  E(RHF) =  -1154.67433800     A.U. after    8 cycles
 E2 =    -0.1911213656D+01 EUMP2 =    -0.11565855516603D+04
 SCF Done:  E(RHF) =  -1154.67431729     A.U. after    9 cycles
 E2 =    -0.1911266725D+01 EUMP2 =    -0.11565855840123D+04
 SCF Done:  E(RHF) =  -1154.67424518     A.U. after   10 cycles
 E2 =    -0.1911381369D+01 EUMP2 =    -0.11565856265537D+04
 SCF Done:  E(RHF) =  -1154.67418217     A.U. after    9 cycles
 E2 =    -0.1911451554D+01 EUMP2 =    -0.11565856337272D+04
 Optimization completed.
    -- Stationary point found.

                         Z-Matrix orientation:
 ---------------------------------------------------------------------
 Center     Atomic      Atomic             Coordinates (Angstroms)
 Number     Number       Type             X           Y           Z
 ---------------------------------------------------------------------
      1          9           0       -1.969300    2.053680    0.000070
      2          6           0       -1.222250    0.944230    0.000030
      3          6           0        0.140030    1.057400   -0.000020
      4          6           0        0.927950   -0.123640   -0.000080
      5          6           0        2.414660   -0.018650   -0.000010
      6          9           0        3.007080   -1.234610   -0.000560
      7          9           0        2.858290    0.654480   -1.086020
      8          9           0        2.858270    0.653500    1.086650
      9          6           0        0.306540   -1.341490   -0.000090
     10          7           0       -1.054170   -1.389970   -0.000060
     11          6           0       -1.930500   -0.312100    0.000000
     12         16           0       -3.570980   -0.506610    0.000030
     13          1           0        0.596860    2.043100   -0.000020
     14          1           0        0.831760   -2.288990   -0.000150
     15          1           0       -1.521480   -2.296390   -0.000090
     16         -1           0       -3.688724    0.486434    0.000069
     17         -1           0       -2.695680    0.604178    0.000051
     18          1           0       -6.375411   -0.839128    0.000081
     19         -1           0       -6.493155    0.153915    0.000120
     20          8           0       -7.325953   -0.951833    0.000099
     21          1           0       -7.455166   -1.900272    0.000067
 ---------------------------------------------------------------------

 Alpha  occ. eigenvalues --  -91.91199 -26.37109 -26.36156 -26.36154 -26.33839
 Alpha  occ. eigenvalues --  -20.54090 -15.69409 -11.54488 -11.38640 -11.37687
 Alpha  occ. eigenvalues --  -11.36615 -11.31761 -11.30843  -8.92328  -6.60670
 Alpha  occ. eigenvalues --   -6.60388  -6.60269  -1.74343  -1.65349  -1.65086
 Alpha  occ. eigenvalues --   -1.64647  -1.36162  -1.32267  -1.17616  -1.12643
 Alpha  occ. eigenvalues --   -1.03478  -0.97666  -0.93070  -0.88867  -0.85225
 Alpha  occ. eigenvalues --   -0.83983  -0.83574  -0.77456  -0.76302  -0.74293
 Alpha  occ. eigenvalues --   -0.72515  -0.71885  -0.71692  -0.70754  -0.68811
 Alpha  occ. eigenvalues --   -0.67760  -0.67757  -0.66329  -0.64406  -0.63071
 Alpha  occ. eigenvalues --   -0.61215  -0.59849  -0.55400  -0.53365  -0.47891
 Alpha  occ. eigenvalues --   -0.47031  -0.43841  -0.34966  -0.31704
 Alpha virt. eigenvalues --    0.03874   0.08231   0.16738   0.20460   0.24112
 Alpha virt. eigenvalues --    0.25300   0.26068   0.27457   0.29652   0.33273
 Alpha virt. eigenvalues --    0.34505   0.37453   0.39975   0.40376   0.42507

 Mulliken atomic charges:
              1
     1  F   -0.358302
     2  C    0.403089
     3  C   -0.169867
     4  C   -0.299678
     5  C    1.208703
     6  F   -0.383104
     7  F   -0.372419
     8  F   -0.372423
     9  C    0.172525
    10  N   -0.778506
    11  C    0.178527
    12  S   -0.246330
    13  H    0.283736
    14  H    0.289961
    15  H    0.442170
    16  H    0.462932
    17  O   -0.888008
    18  H    0.426994
 Sum of Mulliken atomic charges =   0.00000

 Dipole moment (field-independent basis, Debye):
    X=              5.6999    Y=             -4.0649    Z=             -0.0005  Tot=              7.0009
 Quadrupole moment (field-independent basis, Debye-Ang):
   XX=           -129.6457   YY=            -66.4226   ZZ=            -82.5164
   XY=             12.0452   XZ=              0.0007   YZ=              0.0004

 Normal termination of Gaussian 09 at Mon Aug 29 20:28:15 2022.
