 Gaussian 09, Revision A.01,
 Gaussian 09:  EM64L-G09RevA.01  8-May-2009

 -------------------------------
 #MP2/6-31G* Opt=Z-matrix NoSymm
 -------------------------------

 -------------------------------
 water interaction with atom S12
 -------------------------------
 Symbolic Z-matrix:
 Charge =  0 Multiplicity = 1

 SCF Done:  E(RHF) =  -1154.67471891     A.U. after   15 cycles
 E2 =    -0.1911067962D+01 EUMP2 =    -0.11565857868679D+04
 SCF Done:  E(RHF) =  -1154.67471757     A.U. after    9 cycles
 E2 =    -0.1911098323D+01 EUMP2 =    -0.11565858158907D+04
 SCF Done:  E(RHF) =  -1154.67470593     A.U. after    9 cycles
 E2 =    -0.1911162165D+01 EUMP2 =    -0.11565858680950D+04
 SCF Done:  E(RHF) =  -1154.67463667     A.U. after   10 cycles
 E2 =    -0.1911303370D+01 EUMP2 =    -0.11565859400387D+04
 SCF Done:  E(RHF) =  -1154.67455542     A.U. after   10 cycles
 E2 =    -0.1911398431D+01 EUMP2 =    -0.11565859538562D+04
 Optimization completed.
    -- Stationary point found.

                         Z-Matrix orientation:
 ---------------------------------------------------------------------
 Center     Atomic      Atomic             Coordinates (Angstroms)
 Number     Number       Type             X           Y           Z
 ---------------------------------------------------------------------
      1          9           0       -1.969300    2.053680    0.000070
      2          6           0       -1.222250    0.944230    0.000030
      3          6           0        0.140030    1.057400   -0.000020
      4          6           0        0.927950   -0.123640   -0.000080
      5          6           0        2.414660   -0.018650   -0.000010
      6          9           0        3.007080   -1.234610   -0.000560
      7          9           0        2.858290    0.654480   -1.086020
      8          9           0        2.858270    0.653500    1.086650
      9          6           0        0.306540   -1.341490   -0.000090
     10          7           0       -1.054170   -1.389970   -0.000060
     11          6           0       -1.930500   -0.312100    0.000000
     12         16           0       -3.570980   -0.506610    0.000030
     13          1           0        0.596860    2.043100   -0.000020
     14          1           0        0.831760   -2.288990   -0.000150
     15          1           0       -1.521480   -2.296390   -0.000090
     16         -1           0       -3.688724    0.486434    0.000069
     17         -1           0       -2.695680    0.604178    0.000051
     18          1           0       -6.364811   -0.837872    0.000081
     19         -1           0       -6.482555    0.155172    0.000120
     20          8           0       -7.315353   -0.950576    0.000098
     21          1           0       -7.553649   -0.978867    0.926730
 ---------------------------------------------------------------------

 Alpha  occ. eigenvalues --  -91.91180 -26.37103 -26.36164 -26.36152 -26.33896
 Alpha  occ. eigenvalues --  -20.54050 -15.69394 -11.54489 -11.38641 -11.37699
 Alpha  occ. eigenvalues --  -11.36612 -11.31783 -11.30841  -8.92311  -6.60653
 Alpha  occ. eigenvalues --   -6.60371  -6.60252  -1.74343  -1.65346  -1.65147
 Alpha  occ. eigenvalues --   -1.64651  -1.36148  -1.32228  -1.17620  -1.12648
 Alpha  occ. eigenvalues --   -1.03481  -0.97664  -0.93074  -0.88866  -0.85235
 Alpha  occ. eigenvalues --   -0.83983  -0.83576  -0.77466  -0.76314  -0.74308
 Alpha  occ. eigenvalues --   -0.72519  -0.71888  -0.71748  -0.70763  -0.68783
 Alpha  occ. eigenvalues --   -0.67761  -0.67756  -0.66330  -0.64440  -0.63061
 Alpha  occ. eigenvalues --   -0.61222  -0.59856  -0.55385  -0.53355  -0.47856
 Alpha  occ. eigenvalues --   -0.47035  -0.43851  -0.34940  -0.31716
 Alpha virt. eigenvalues --    0.03866   0.08227   0.16816   0.20518   0.24115
 Alpha virt. eigenvalues --    0.25312   0.26049   0.27623   0.29642   0.33253
 Alpha virt. eigenvalues --    0.34456   0.37583   0.39972   0.40375   0.42518

 Mulliken atomic charges:
              1
     1  F   -0.359009
     2  C    0.402235
     3  C   -0.169683
     4  C   -0.299973
     5  C    1.208757
     6  F   -0.382989
     7  F   -0.372358
     8  F   -0.372607
     9  C    0.172947
    10  N   -0.778534
    11  C    0.178224
    12  S   -0.246679
    13  H    0.283481
    14  H    0.290471
    15  H    0.443680
    16  H    0.463354
    17  O   -0.889678
    18  H    0.428361
 Sum of Mulliken atomic charges =   0.00000

 Dipole moment (field-independent basis, Debye):
    X=              5.5111    Y=             -2.3965    Z=              1.7037  Tot=              6.2465
 Quadrupole moment (field-independent basis, Debye-Ang):
   XX=           -126.5554   YY=            -72.0232   ZZ=            -80.2677
   XY=             -0.6605   XZ=            -13.3009   YZ=             -1.7206

 Normal termination of Gaussian 09 at Mon Aug 29 20:36:16 2022.
