 Gaussian 09, Revision A.01,
 Gaussian 09:  EM64L-G09RevA.01  8-May-2009

 -------------------------------
 #MP2/6-31G* Opt=Z-matrix NoSymm
 -------------------------------

 -------------------------------
 water interaction with atom S12
 -------------------------------
 Symbolic Z-matrix:
 Charge =  0 Multiplicity = 1

 SCF Done:  E(RHF) =  -1154.67467888     A.U. after   15 cycles
 E2 =    -0.1910900357D+01 EUMP2 =    -0.11565855792414D+04
 SCF Done:  E(RHF) =  -1154.67469374     A.U. after    9 cycles
 E2 =    -0.1910935281D+01 EUMP2 =    -0.11565856290201D+04
 SCF Done:  E(RHF) =  -1154.67471412     A.U. after   10 cycles
 E2 =    -0.1911010377D+01 EUMP2 =    -0.11565857244967D+04
 SCF Done:  E(RHF) =  -1154.67469924     A.U. after   10 cycles
 E2 =    -0.1911183769D+01 EUMP2 =    -0.11565858830064D+04
 SCF Done:  E(RHF) =  -1154.67455040     A.U. after   10 cycles
 E2 =    -0.1911403391D+01 EUMP2 =    -0.11565859537944D+04
 SCF Done:  E(RHF) =  -1154.67455653     A.U. after    6 cycles
 E2 =    -0.1911397335D+01 EUMP2 =    -0.11565859538662D+04
 Optimization completed.
    -- Stationary point found.

                         Z-Matrix orientation:
 ---------------------------------------------------------------------
 Center     Atomic      Atomic             Coordinates (Angstroms)
 Number     Number       Type             X           Y           Z
 ---------------------------------------------------------------------
      1          9           0       -1.969300    2.053680    0.000070
      2          6           0       -1.222250    0.944230    0.000030
      3          6           0        0.140030    1.057400   -0.000020
      4          6           0        0.927950   -0.123640   -0.000080
      5          6           0        2.414660   -0.018650   -0.000010
      6          9           0        3.007080   -1.234610   -0.000560
      7          9           0        2.858290    0.654480   -1.086020
      8          9           0        2.858270    0.653500    1.086650
      9          6           0        0.306540   -1.341490   -0.000090
     10          7           0       -1.054170   -1.389970   -0.000060
     11          6           0       -1.930500   -0.312100    0.000000
     12         16           0       -3.570980   -0.506610    0.000030
     13          1           0        0.596860    2.043100   -0.000020
     14          1           0        0.831760   -2.288990   -0.000150
     15          1           0       -1.521480   -2.296390   -0.000090
     16         -1           0       -3.688724    0.486434    0.000069
     17         -1           0       -2.695680    0.604178    0.000051
     18          1           0       -6.365496   -0.837953    0.000081
     19         -1           0       -6.483240    0.155091    0.000120
     20          8           0       -7.316037   -0.950658    0.000098
     21          1           0       -7.554376   -0.978881   -0.926524
 ---------------------------------------------------------------------

 Alpha  occ. eigenvalues --  -91.91179 -26.37103 -26.36165 -26.36151 -26.33895
 Alpha  occ. eigenvalues --  -20.54051 -15.69394 -11.54489 -11.38641 -11.37699
 Alpha  occ. eigenvalues --  -11.36612 -11.31783 -11.30841  -8.92311  -6.60653
 Alpha  occ. eigenvalues --   -6.60371  -6.60251  -1.74343  -1.65346  -1.65147
 Alpha  occ. eigenvalues --   -1.64651  -1.36147  -1.32229  -1.17619  -1.12648
 Alpha  occ. eigenvalues --   -1.03481  -0.97663  -0.93074  -0.88866  -0.85235
 Alpha  occ. eigenvalues --   -0.83983  -0.83576  -0.77465  -0.76314  -0.74308
 Alpha  occ. eigenvalues --   -0.72519  -0.71887  -0.71748  -0.70762  -0.68783
 Alpha  occ. eigenvalues --   -0.67762  -0.67756  -0.66330  -0.64440  -0.63061
 Alpha  occ. eigenvalues --   -0.61221  -0.59855  -0.55385  -0.53355  -0.47857
 Alpha  occ. eigenvalues --   -0.47035  -0.43850  -0.34940  -0.31715
 Alpha virt. eigenvalues --    0.03867   0.08227   0.16816   0.20517   0.24115
 Alpha virt. eigenvalues --    0.25312   0.26049   0.27621   0.29642   0.33253
 Alpha virt. eigenvalues --    0.34456   0.37582   0.39970   0.40376   0.42518

 Mulliken atomic charges:
              1
     1  F   -0.359010
     2  C    0.402238
     3  C   -0.169684
     4  C   -0.299974
     5  C    1.208757
     6  F   -0.382990
     7  F   -0.372603
     8  F   -0.372362
     9  C    0.172947
    10  N   -0.778534
    11  C    0.178234
    12  S   -0.246680
    13  H    0.283479
    14  H    0.290470
    15  H    0.443679
    16  H    0.463324
    17  O   -0.889655
    18  H    0.428364
 Sum of Mulliken atomic charges =   0.00000

 Dipole moment (field-independent basis, Debye):
    X=              5.5108    Y=             -2.3965    Z=             -1.7046  Tot=              6.2464
 Quadrupole moment (field-independent basis, Debye-Ang):
   XX=           -126.5546   YY=            -72.0236   ZZ=            -80.2685
   XY=             -0.6614   XZ=             13.3026   YZ=              1.7214

 Normal termination of Gaussian 09 at Mon Aug 29 20:20:52 2022.
