 Gaussian 09, Revision A.01,
 Gaussian 09:  EM64L-G09RevA.01  8-May-2009

 -------------------------------
 #MP2/6-31G* Opt=Z-matrix NoSymm
 -------------------------------

 -------------------------------
 water interaction with atom S12
 -------------------------------
 Symbolic Z-matrix:
 Charge =  0 Multiplicity = 1

 SCF Done:  E(RHF) =  -1154.67502034     A.U. after   15 cycles
 E2 =    -0.1910790893D+01 EUMP2 =    -0.11565858112346D+04
 SCF Done:  E(RHF) =  -1154.67505003     A.U. after    9 cycles
 E2 =    -0.1910828822D+01 EUMP2 =    -0.11565858788511D+04
 SCF Done:  E(RHF) =  -1154.67509984     A.U. after   10 cycles
 E2 =    -0.1910911801D+01 EUMP2 =    -0.11565860116453D+04
 SCF Done:  E(RHF) =  -1154.67513441     A.U. after   10 cycles
 E2 =    -0.1911109742D+01 EUMP2 =    -0.11565862441493D+04
 SCF Done:  E(RHF) =  -1154.67497216     A.U. after   11 cycles
 E2 =    -0.1911391060D+01 EUMP2 =    -0.11565863632234D+04
 SCF Done:  E(RHF) =  -1154.67498139     A.U. after    6 cycles
 E2 =    -0.1911381988D+01 EUMP2 =    -0.11565863633733D+04
 Optimization completed.
    -- Stationary point found.

                         Z-Matrix orientation:
 ---------------------------------------------------------------------
 Center     Atomic      Atomic             Coordinates (Angstroms)
 Number     Number       Type             X           Y           Z
 ---------------------------------------------------------------------
      1          9           0       -1.969300    2.053680    0.000070
      2          6           0       -1.222250    0.944230    0.000030
      3          6           0        0.140030    1.057400   -0.000020
      4          6           0        0.927950   -0.123640   -0.000080
      5          6           0        2.414660   -0.018650   -0.000010
      6          9           0        3.007080   -1.234610   -0.000560
      7          9           0        2.858290    0.654480   -1.086020
      8          9           0        2.858270    0.653500    1.086650
      9          6           0        0.306540   -1.341490   -0.000090
     10          7           0       -1.054170   -1.389970   -0.000060
     11          6           0       -1.930500   -0.312100    0.000000
     12         16           0       -3.570980   -0.506610    0.000030
     13          1           0        0.596860    2.043100   -0.000020
     14          1           0        0.831760   -2.288990   -0.000150
     15          1           0       -1.521480   -2.296390   -0.000090
     16         -1           0       -3.688724    0.486434    0.000069
     17         -1           0       -2.695680    0.604178    0.000051
     18          1           0       -6.339649   -0.834888    0.000081
     19         -1           0       -6.457393    0.158156    0.000120
     20          8           0       -7.290191   -0.947593    0.000098
     21          1           0       -7.637613   -0.055668    0.000139
 ---------------------------------------------------------------------

 Alpha  occ. eigenvalues --  -91.91199 -26.37098 -26.36162 -26.36159 -26.33980
 Alpha  occ. eigenvalues --  -20.53997 -15.69383 -11.54489 -11.38651 -11.37722
 Alpha  occ. eigenvalues --  -11.36615 -11.31810 -11.30839  -8.92332  -6.60674
 Alpha  occ. eigenvalues --   -6.60392  -6.60273  -1.74343  -1.65343  -1.65237
 Alpha  occ. eigenvalues --   -1.64654  -1.36140  -1.32177  -1.17626  -1.12663
 Alpha  occ. eigenvalues --   -1.03491  -0.97669  -0.93088  -0.88877  -0.85255
 Alpha  occ. eigenvalues --   -0.83984  -0.83577  -0.77484  -0.76339  -0.74338
 Alpha  occ. eigenvalues --   -0.72526  -0.71892  -0.71828  -0.70780  -0.68744
 Alpha  occ. eigenvalues --   -0.67760  -0.67758  -0.66331  -0.64492  -0.63060
 Alpha  occ. eigenvalues --   -0.61234  -0.59871  -0.55370  -0.53355  -0.47816
 Alpha  occ. eigenvalues --   -0.47042  -0.43869  -0.34977  -0.31721
 Alpha virt. eigenvalues --    0.03862   0.08223   0.16874   0.20595   0.24101
 Alpha virt. eigenvalues --    0.25309   0.26042   0.27789   0.29625   0.33220
 Alpha virt. eigenvalues --    0.34405   0.37732   0.39991   0.40374   0.42529

 Mulliken atomic charges:
              1
     1  F   -0.360093
     2  C    0.401098
     3  C   -0.169429
     4  C   -0.300322
     5  C    1.208789
     6  F   -0.382888
     7  F   -0.372537
     8  F   -0.372541
     9  C    0.173552
    10  N   -0.778935
    11  C    0.178680
    12  S   -0.246462
    13  H    0.283166
    14  H    0.290921
    15  H    0.444769
    16  H    0.464388
    17  O   -0.891990
    18  H    0.429835
 Sum of Mulliken atomic charges =   0.00000

 Dipole moment (field-independent basis, Debye):
    X=              5.3179    Y=             -0.7213    Z=             -0.0004  Tot=              5.3666
 Quadrupole moment (field-independent basis, Debye-Ang):
   XX=           -123.3552   YY=            -73.2065   ZZ=            -82.5148
   XY=            -13.8851   XZ=             -0.0004   YZ=              0.0006

 Normal termination of Gaussian 09 at Mon Aug 29 20:11:23 2022.
