 Gaussian 16, Revision C.02,
 Gaussian 16:  ES64L-G16RevC.02  7-Dec-2021

 ---------------------------------------------------------
 #MP2/6-31G* SCF=Tight Opt=(ModRedun, MaxCycle=20 ) NoSymm
 ---------------------------------------------------------

 --------
 MolName:
 --------
 Symbolic Z-matrix:
 Charge =  0 Multiplicity = 1

 SCF Done:  E(RHF) =  -661.276193420     A.U. after   16 cycles
 E2 =    -0.2037809684D+01 EUMP2 =    -0.66331400310431D+03
 SCF Done:  E(RHF) =  -661.294474226     A.U. after   15 cycles
 E2 =    -0.2033816691D+01 EUMP2 =    -0.66332829091688D+03
 SCF Done:  E(RHF) =  -661.295303771     A.U. after   14 cycles
 E2 =    -0.2034896536D+01 EUMP2 =    -0.66333020030673D+03
 SCF Done:  E(RHF) =  -661.283128077     A.U. after   17 cycles
 E2 =    -0.2038183963D+01 EUMP2 =    -0.66332131204005D+03
 SCF Done:  E(RHF) =  -661.295329822     A.U. after   14 cycles
 E2 =    -0.2035988267D+01 EUMP2 =    -0.66333131808849D+03
 SCF Done:  E(RHF) =  -661.295875421     A.U. after   12 cycles
 E2 =    -0.2035572430D+01 EUMP2 =    -0.66333144785055D+03
 SCF Done:  E(RHF) =  -661.296258910     A.U. after   11 cycles
 E2 =    -0.2035206651D+01 EUMP2 =    -0.66333146556086D+03
 SCF Done:  E(RHF) =  -661.296299487     A.U. after   10 cycles
 E2 =    -0.2035168489D+01 EUMP2 =    -0.66333146797606D+03
 SCF Done:  E(RHF) =  -661.296294614     A.U. after    9 cycles
 E2 =    -0.2035173815D+01 EUMP2 =    -0.66333146842950D+03
 SCF Done:  E(RHF) =  -661.296293081     A.U. after    9 cycles
 E2 =    -0.2035175550D+01 EUMP2 =    -0.66333146863103D+03
 Optimization completed.
    -- Stationary point found.

                          Input orientation:
 ---------------------------------------------------------------------
 Center     Atomic      Atomic             Coordinates (Angstroms)
 Number     Number       Type             X           Y           Z
 ---------------------------------------------------------------------
      1          8           0       -3.495768   -1.342806   -0.538668
      2          7           0       -3.097726   -0.188943   -0.287123
      3          8           0       -3.851690    0.802034   -0.233912
      4          6           0       -1.675391   -0.018969   -0.030886
      5          6           0       -1.281805    1.266858    0.239869
      6          7           0       -0.057481    1.709491    0.569765
      7          6           0        1.220997    1.016613    0.469843
      8          1           0        1.916461    1.607401    1.082509
      9          6           0        1.826280    1.033054   -0.939863
     10          6           0        3.233229    0.426063   -0.873286
     11          6           0        3.231567   -0.971298   -0.247492
     12          6           0        2.530219   -0.987896    1.111666
     13          6           0        1.106758   -0.437894    0.959537
     14          1           0        0.571288   -0.448931    1.919757
     15          7           0        0.426283   -1.308325    0.004622
     16          6           0       -0.829498   -1.170420   -0.272960
     17          1           0       -2.066647    2.016816    0.282376
     18          1           0        0.004320    2.711395    0.713740
     19          1           0        1.185453    0.459793   -1.617972
     20          1           0        1.866599    2.064076   -1.313312
     21          1           0        3.669727    0.391045   -1.878093
     22          1           0        3.874811    1.091778   -0.278210
     23          1           0        2.709286   -1.668890   -0.909188
     24          1           0        4.262331   -1.330752   -0.143309
     25          1           0        2.474754   -2.011189    1.497301
     26          1           0        3.084621   -0.386767    1.845261
     27          1           0       -1.277979   -1.961359   -0.873973
 ---------------------------------------------------------------------

 Alpha  occ. eigenvalues --  -20.59291 -20.58954 -15.84774 -15.64087 -15.55890
 Alpha  occ. eigenvalues --  -11.34998 -11.29639 -11.29597 -11.28712 -11.27157
 Alpha  occ. eigenvalues --  -11.23773 -11.23222 -11.22621 -11.22008  -1.57176
 Alpha  occ. eigenvalues --   -1.36764  -1.30919  -1.22876  -1.14728  -1.09755
 Alpha  occ. eigenvalues --   -1.02777  -1.01303  -0.94468  -0.89721  -0.85525
 Alpha  occ. eigenvalues --   -0.82422  -0.78646  -0.77388  -0.75018  -0.71892
 Alpha  occ. eigenvalues --   -0.69784  -0.69494  -0.67933  -0.64799  -0.64087
 Alpha  occ. eigenvalues --   -0.62297  -0.60090  -0.57897  -0.56767  -0.55054
 Alpha  occ. eigenvalues --   -0.54623  -0.50719  -0.50210  -0.48753  -0.48168
 Alpha  occ. eigenvalues --   -0.47375  -0.46194  -0.45922  -0.43730  -0.41776
 Alpha  occ. eigenvalues --   -0.39275  -0.33735
 Alpha virt. eigenvalues --    0.07296   0.11560   0.17285   0.21971   0.24277
 Alpha virt. eigenvalues --    0.25931   0.27121   0.28736   0.29223   0.29453
 Alpha virt. eigenvalues --    0.30731   0.31933   0.32084   0.32819   0.33729

 Mulliken charges:
               1
     1  O   -0.467072
     2  N    0.493692
     3  O   -0.503494
     4  C    0.002633
     5  C    0.183988
     6  N   -0.767699
     7  C    0.043215
     8  H    0.184048
     9  C   -0.304733
    10  C   -0.326934
    11  C   -0.322786
    12  C   -0.304106
    13  C   -0.026075
    14  H    0.195791
    15  N   -0.525113
    16  C    0.121469
    17  H    0.295348
    18  H    0.401841
    19  H    0.190245
    20  H    0.158372
    21  H    0.174801
    22  H    0.148732
    23  H    0.201879
    24  H    0.164023
    25  H    0.185926
    26  H    0.150703
    27  H    0.251306
 Sum of Mulliken charges =  -0.00000

 Dipole moment (field-independent basis, Debye):
    X=              5.3926    Y=              4.6689    Z=              1.4675  Tot=              7.2823
 Quadrupole moment (field-independent basis, Debye-Ang):
   XX=           -105.7396   YY=            -78.8734   ZZ=            -82.0617
   XY=             -1.0780   XZ=             -1.8851   YZ=              1.4983

 Normal termination of Gaussian 16 at Sun Jul  2 14:15:54 2023.
