 Gaussian 16, Revision C.02,
 Gaussian 16:  ES64L-G16RevC.02  7-Dec-2021

 ---------------------------------------------------------
 #MP2/6-31G* SCF=Tight Opt=(ModRedun, MaxCycle=20 ) NoSymm
 ---------------------------------------------------------

 --------
 MolName:
 --------
 Symbolic Z-matrix:
 Charge =  0 Multiplicity = 1

 SCF Done:  E(RHF) =  -661.281825300     A.U. after   16 cycles
 E2 =    -0.2037281509D+01 EUMP2 =    -0.66331910680905D+03
 SCF Done:  E(RHF) =  -661.298701308     A.U. after   14 cycles
 E2 =    -0.2032905360D+01 EUMP2 =    -0.66333160666865D+03
 SCF Done:  E(RHF) =  -661.299071530     A.U. after   14 cycles
 E2 =    -0.2033804690D+01 EUMP2 =    -0.66333287621992D+03
 SCF Done:  E(RHF) =  -661.286270744     A.U. after   17 cycles
 E2 =    -0.2036725132D+01 EUMP2 =    -0.66332299587679D+03
 SCF Done:  E(RHF) =  -661.298765600     A.U. after   14 cycles
 E2 =    -0.2034938354D+01 EUMP2 =    -0.66333370395316D+03
 SCF Done:  E(RHF) =  -661.298821565     A.U. after   12 cycles
 E2 =    -0.2034991484D+01 EUMP2 =    -0.66333381304892D+03
 SCF Done:  E(RHF) =  -661.299265586     A.U. after   12 cycles
 E2 =    -0.2034582116D+01 EUMP2 =    -0.66333384770210D+03
 SCF Done:  E(RHF) =  -661.299372754     A.U. after   11 cycles
 E2 =    -0.2034479161D+01 EUMP2 =    -0.66333385191455D+03
 SCF Done:  E(RHF) =  -661.299359200     A.U. after   10 cycles
 E2 =    -0.2034493109D+01 EUMP2 =    -0.66333385230852D+03
 Optimization completed.
    -- Stationary point found.

                          Input orientation:
 ---------------------------------------------------------------------
 Center     Atomic      Atomic             Coordinates (Angstroms)
 Number     Number       Type             X           Y           Z
 ---------------------------------------------------------------------
      1          8           0       -3.505371   -1.365839   -0.454890
      2          7           0       -3.112857   -0.210325   -0.201660
      3          8           0       -3.878566    0.766363   -0.086743
      4          6           0       -1.682314   -0.022668   -0.018877
      5          6           0       -1.293136    1.263361    0.256220
      6          7           0       -0.056033    1.731493    0.478829
      7          6           0        1.213526    1.020539    0.415702
      8          1           0        1.887449    1.579560    1.081192
      9          6           0        1.868749    1.034765   -0.967974
     10          6           0        3.272056    0.427450   -0.852866
     11          6           0        3.246640   -0.969594   -0.227006
     12          6           0        2.497867   -0.983256    1.106998
     13          6           0        1.080687   -0.431507    0.912311
     14          1           0        0.524721   -0.426654    1.862135
     15          7           0        0.417563   -1.313766   -0.043267
     16          6           0       -0.834168   -1.155527   -0.329541
     17          1           0       -2.085072    2.001662    0.346901
     18          1           0        0.002857    2.727050    0.658878
     19          1           0        1.250812    0.459768   -1.665689
     20          1           0        1.922128    2.064370   -1.343380
     21          1           0        3.742492    0.391313   -1.842134
     22          1           0        3.893281    1.092894   -0.236461
     23          1           0        2.746074   -1.666214   -0.906468
     24          1           0        4.272058   -1.331585   -0.086240
     25          1           0        2.427244   -2.005856    1.491933
     26          1           0        3.030221   -0.383838    1.858254
     27          1           0       -1.288909   -1.928958   -0.948159
 ---------------------------------------------------------------------

 Alpha  occ. eigenvalues --  -20.59240 -20.58906 -15.84731 -15.64172 -15.55967
 Alpha  occ. eigenvalues --  -11.35021 -11.29619 -11.29575 -11.28640 -11.27137
 Alpha  occ. eigenvalues --  -11.23754 -11.23214 -11.22652 -11.22043  -1.57128
 Alpha  occ. eigenvalues --   -1.36715  -1.30987  -1.22964  -1.14719  -1.09788
 Alpha  occ. eigenvalues --   -1.02802  -1.01311  -0.94482  -0.89708  -0.85553
 Alpha  occ. eigenvalues --   -0.82437  -0.78655  -0.77397  -0.75138  -0.72005
 Alpha  occ. eigenvalues --   -0.69755  -0.69456  -0.67873  -0.64841  -0.63933
 Alpha  occ. eigenvalues --   -0.62332  -0.60186  -0.57814  -0.56881  -0.55070
 Alpha  occ. eigenvalues --   -0.54608  -0.50729  -0.50183  -0.48690  -0.48132
 Alpha  occ. eigenvalues --   -0.47361  -0.46157  -0.45994  -0.43691  -0.41730
 Alpha  occ. eigenvalues --   -0.39553  -0.33753
 Alpha virt. eigenvalues --    0.07446   0.11711   0.17284   0.21911   0.24210
 Alpha virt. eigenvalues --    0.25801   0.27156   0.28735   0.29136   0.29539
 Alpha virt. eigenvalues --    0.30719   0.31865   0.32063   0.32814   0.33828

 Mulliken charges:
               1
     1  O   -0.467293
     2  N    0.492590
     3  O   -0.504170
     4  C   -0.000592
     5  C    0.190037
     6  N   -0.777899
     7  C    0.054106
     8  H    0.182059
     9  C   -0.302851
    10  C   -0.327456
    11  C   -0.322110
    12  C   -0.305473
    13  C   -0.031711
    14  H    0.192766
    15  N   -0.519166
    16  C    0.121125
    17  H    0.295512
    18  H    0.404441
    19  H    0.190181
    20  H    0.159687
    21  H    0.174704
    22  H    0.149022
    23  H    0.200999
    24  H    0.164255
    25  H    0.186550
    26  H    0.150495
    27  H    0.250195
 Sum of Mulliken charges =  -0.00000

 Dipole moment (field-independent basis, Debye):
    X=              5.4185    Y=              4.7575    Z=              1.3640  Tot=              7.3385
 Quadrupole moment (field-independent basis, Debye-Ang):
   XX=           -106.0520   YY=            -78.9825   ZZ=            -81.7492
   XY=             -1.4265   XZ=             -0.9977   YZ=              1.6376

 Normal termination of Gaussian 16 at Sun Jul  2 13:54:57 2023.
