 Gaussian 16, Revision C.02,
 Gaussian 16:  ES64L-G16RevC.02  7-Dec-2021

 ---------------------------------------------------------
 #MP2/6-31G* SCF=Tight Opt=(ModRedun, MaxCycle=20 ) NoSymm
 ---------------------------------------------------------

 --------
 MolName:
 --------
 Symbolic Z-matrix:
 Charge =  0 Multiplicity = 1

 SCF Done:  E(RHF) =  -661.281404472     A.U. after   16 cycles
 E2 =    -0.2037251091D+01 EUMP2 =    -0.66331865556338D+03
 SCF Done:  E(RHF) =  -661.298579799     A.U. after   15 cycles
 E2 =    -0.2032635501D+01 EUMP2 =    -0.66333121529939D+03
 SCF Done:  E(RHF) =  -661.299214562     A.U. after   15 cycles
 E2 =    -0.2033411155D+01 EUMP2 =    -0.66333262571682D+03
 SCF Done:  E(RHF) =  -661.288748043     A.U. after   17 cycles
 E2 =    -0.2036573034D+01 EUMP2 =    -0.66332532107688D+03
 SCF Done:  E(RHF) =  -661.299353742     A.U. after   14 cycles
 E2 =    -0.2034970123D+01 EUMP2 =    -0.66333432386449D+03
 SCF Done:  E(RHF) =  -661.299962196     A.U. after   12 cycles
 E2 =    -0.2034610525D+01 EUMP2 =    -0.66333457272076D+03
 SCF Done:  E(RHF) =  -661.300439233     A.U. after   12 cycles
 E2 =    -0.2034198532D+01 EUMP2 =    -0.66333463776522D+03
 SCF Done:  E(RHF) =  -661.300435324     A.U. after   12 cycles
 E2 =    -0.2034212631D+01 EUMP2 =    -0.66333464795490D+03
 SCF Done:  E(RHF) =  -661.300382004     A.U. after   10 cycles
 E2 =    -0.2034267333D+01 EUMP2 =    -0.66333464933633D+03
 Optimization completed.
    -- Stationary point found.

                          Input orientation:
 ---------------------------------------------------------------------
 Center     Atomic      Atomic             Coordinates (Angstroms)
 Number     Number       Type             X           Y           Z
 ---------------------------------------------------------------------
      1          8           0       -3.506618   -1.390456   -0.371704
      2          7           0       -3.121110   -0.232495   -0.118463
      3          8           0       -3.895472    0.728381    0.055826
      4          6           0       -1.686777   -0.023900   -0.009339
      5          6           0       -1.301572    1.260625    0.275492
      6          7           0       -0.057312    1.750086    0.386357
      7          6           0        1.205606    1.023905    0.359351
      8          1           0        1.853374    1.552943    1.074681
      9          6           0        1.909072    1.035033   -0.996504
     10          6           0        3.307476    0.428432   -0.832442
     11          6           0        3.259509   -0.967683   -0.205862
     12          6           0        2.464497   -0.978261    1.101613
     13          6           0        1.054817   -0.424658    0.865179
     14          1           0        0.478259   -0.403368    1.803586
     15          7           0        0.408315   -1.317855   -0.091191
     16          6           0       -0.838969   -1.137930   -0.386564
     17          1           0       -2.096337    1.987537    0.419129
     18          1           0        0.001807    2.735177    0.615799
     19          1           0        1.314938    0.457620   -1.712793
     20          1           0        1.975052    2.062994   -1.374140
     21          1           0        3.811431    0.390365   -1.804965
     22          1           0        3.907233    1.094737   -0.196165
     23          1           0        2.781874   -1.664468   -0.901731
     24          1           0        4.278674   -1.331155   -0.028682
     25          1           0        2.379115   -2.000148    1.485555
     26          1           0        2.974388   -0.380309    1.869609
     27          1           0       -1.300269   -1.892138   -1.023613
 ---------------------------------------------------------------------

 Alpha  occ. eigenvalues --  -20.59236 -20.58902 -15.84722 -15.64136 -15.56112
 Alpha  occ. eigenvalues --  -11.35018 -11.29624 -11.29558 -11.28625 -11.27133
 Alpha  occ. eigenvalues --  -11.23728 -11.23208 -11.22692 -11.22089  -1.57121
 Alpha  occ. eigenvalues --   -1.36712  -1.30976  -1.23066  -1.14703  -1.09819
 Alpha  occ. eigenvalues --   -1.02805  -1.01309  -0.94481  -0.89684  -0.85566
 Alpha  occ. eigenvalues --   -0.82448  -0.78609  -0.77411  -0.75202  -0.72020
 Alpha  occ. eigenvalues --   -0.69773  -0.69440  -0.67821  -0.64893  -0.63778
 Alpha  occ. eigenvalues --   -0.62368  -0.60280  -0.57700  -0.57002  -0.55077
 Alpha  occ. eigenvalues --   -0.54582  -0.50762  -0.50109  -0.48656  -0.48103
 Alpha  occ. eigenvalues --   -0.47372  -0.46146  -0.46045  -0.43678  -0.41695
 Alpha  occ. eigenvalues --   -0.39849  -0.33830
 Alpha virt. eigenvalues --    0.07466   0.11802   0.17308   0.21848   0.24112
 Alpha virt. eigenvalues --    0.25663   0.27134   0.28694   0.29044   0.29637
 Alpha virt. eigenvalues --    0.30683   0.31799   0.32036   0.32767   0.33951

 Mulliken charges:
               1
     1  O   -0.467254
     2  N    0.491356
     3  O   -0.504083
     4  C    0.000430
     5  C    0.188925
     6  N   -0.780294
     7  C    0.060233
     8  H    0.180077
     9  C   -0.301420
    10  C   -0.327949
    11  C   -0.321486
    12  C   -0.306669
    13  C   -0.037163
    14  H    0.189951
    15  N   -0.511177
    16  C    0.120032
    17  H    0.295290
    18  H    0.404866
    19  H    0.190203
    20  H    0.161378
    21  H    0.174649
    22  H    0.149360
    23  H    0.199942
    24  H    0.164541
    25  H    0.187059
    26  H    0.150348
    27  H    0.248856
 Sum of Mulliken charges =  -0.00000

 Dipole moment (field-independent basis, Debye):
    X=              5.4161    Y=              4.7962    Z=              1.2823  Tot=              7.3473
 Quadrupole moment (field-independent basis, Debye-Ang):
   XX=           -106.1389   YY=            -79.2270   ZZ=            -81.4997
   XY=             -1.7675   XZ=             -0.1345   YZ=              1.8555

 Normal termination of Gaussian 16 at Sun Jul  2 12:55:40 2023.
