 Gaussian 16, Revision C.02,
 Gaussian 16:  ES64L-G16RevC.02  7-Dec-2021

 ---------------------------------------------------------
 #MP2/6-31G* SCF=Tight Opt=(ModRedun, MaxCycle=20 ) NoSymm
 ---------------------------------------------------------

 --------
 MolName:
 --------
 Symbolic Z-matrix:
 Charge =  0 Multiplicity = 1

 SCF Done:  E(RHF) =  -661.278049725     A.U. after   16 cycles
 E2 =    -0.2037556093D+01 EUMP2 =    -0.66331560581842D+03
 SCF Done:  E(RHF) =  -661.295744360     A.U. after   15 cycles
 E2 =    -0.2032853442D+01 EUMP2 =    -0.66332859780258D+03
 SCF Done:  E(RHF) =  -661.296886791     A.U. after   15 cycles
 E2 =    -0.2033547078D+01 EUMP2 =    -0.66333043386934D+03
 SCF Done:  E(RHF) =  -661.289958500     A.U. after   17 cycles
 E2 =    -0.2036060862D+01 EUMP2 =    -0.66332601936144D+03
 SCF Done:  E(RHF) =  -661.298027275     A.U. after   14 cycles
 E2 =    -0.2035173325D+01 EUMP2 =    -0.66333320060003D+03
 SCF Done:  E(RHF) =  -661.298891818     A.U. after   13 cycles
 E2 =    -0.2034779193D+01 EUMP2 =    -0.66333367101132D+03
 SCF Done:  E(RHF) =  -661.299441036     A.U. after   13 cycles
 E2 =    -0.2034354908D+01 EUMP2 =    -0.66333379594380D+03
 SCF Done:  E(RHF) =  -661.299378731     A.U. after   12 cycles
 E2 =    -0.2034430987D+01 EUMP2 =    -0.66333380971819D+03
 SCF Done:  E(RHF) =  -661.299318539     A.U. after   10 cycles
 E2 =    -0.2034493461D+01 EUMP2 =    -0.66333381199943D+03
 Optimization completed.
    -- Stationary point found.

                          Input orientation:
 ---------------------------------------------------------------------
 Center     Atomic      Atomic             Coordinates (Angstroms)
 Number     Number       Type             X           Y           Z
 ---------------------------------------------------------------------
      1          8           0       -3.500114   -1.416223   -0.288275
      2          7           0       -3.123064   -0.254751   -0.037855
      3          8           0       -3.903056    0.688841    0.194677
      4          6           0       -1.689546   -0.021429   -0.004859
      5          6           0       -1.306807    1.259786    0.293343
      6          7           0       -0.061468    1.765392    0.293108
      7          6           0        1.196789    1.026141    0.302365
      8          1           0        1.811857    1.523271    1.068857
      9          6           0        1.949571    1.035738   -1.022137
     10          6           0        3.341262    0.430422   -0.807142
     11          6           0        3.270165   -0.965355   -0.181923
     12          6           0        2.427412   -0.974889    1.095883
     13          6           0        1.026975   -0.418536    0.817180
     14          1           0        0.429302   -0.381363    1.742701
     15          7           0        0.397394   -1.320875   -0.141793
     16          6           0       -0.844481   -1.116524   -0.447438
     17          1           0       -2.099282    1.976213    0.492043
     18          1           0        0.003652    2.739296    0.565736
     19          1           0        1.381463    0.456531   -1.757966
     20          1           0        2.028604    2.062463   -1.400435
     21          1           0        3.880030    0.391410   -1.760735
     22          1           0        3.917293    1.097312   -0.150099
     23          1           0        2.817947   -1.661900   -0.895085
     24          1           0        4.281535   -1.329975    0.032994
     25          1           0        2.326734   -1.996676    1.476464
     26          1           0        2.913167   -0.379805    1.881721
     27          1           0       -1.313335   -1.849514   -1.103321
 ---------------------------------------------------------------------

 Alpha  occ. eigenvalues --  -20.59281 -20.58943 -15.84747 -15.63979 -15.56326
 Alpha  occ. eigenvalues --  -11.34987 -11.29608 -11.29595 -11.28670 -11.27141
 Alpha  occ. eigenvalues --  -11.23716 -11.23213 -11.22737 -11.22149  -1.57154
 Alpha  occ. eigenvalues --   -1.36755  -1.30891  -1.23185  -1.14685  -1.09856
 Alpha  occ. eigenvalues --   -1.02791  -1.01306  -0.94467  -0.89649  -0.85582
 Alpha  occ. eigenvalues --   -0.82451  -0.78504  -0.77442  -0.75210  -0.71927
 Alpha  occ. eigenvalues --   -0.69837  -0.69447  -0.67785  -0.64953  -0.63616
 Alpha  occ. eigenvalues --   -0.62412  -0.60392  -0.57568  -0.57126  -0.55061
 Alpha  occ. eigenvalues --   -0.54564  -0.50807  -0.50008  -0.48655  -0.48080
 Alpha  occ. eigenvalues --   -0.47410  -0.46197  -0.46053  -0.43692  -0.41680
 Alpha  occ. eigenvalues --   -0.40170  -0.33961
 Alpha virt. eigenvalues --    0.07353   0.11828   0.17379   0.21774   0.23955
 Alpha virt. eigenvalues --    0.25462   0.27115   0.28600   0.28962   0.29711
 Alpha virt. eigenvalues --    0.30618   0.31724   0.32008   0.32697   0.34051

 Mulliken charges:
               1
     1  O   -0.467000
     2  N    0.489959
     3  O   -0.503129
     4  C    0.005742
     5  C    0.180652
     6  N   -0.773933
     7  C    0.060711
     8  H    0.178255
     9  C   -0.300530
    10  C   -0.328381
    11  C   -0.320909
    12  C   -0.307662
    13  C   -0.042732
    14  H    0.187798
    15  N   -0.501262
    16  C    0.118337
    17  H    0.294705
    18  H    0.402790
    19  H    0.190322
    20  H    0.163103
    21  H    0.174657
    22  H    0.149876
    23  H    0.198644
    24  H    0.164917
    25  H    0.187502
    26  H    0.150307
    27  H    0.247261
 Sum of Mulliken charges =  -0.00000

 Dipole moment (field-independent basis, Debye):
    X=              5.3921    Y=              4.7861    Z=              1.1880  Tot=              7.3070
 Quadrupole moment (field-independent basis, Debye-Ang):
   XX=           -106.0005   YY=            -79.5858   ZZ=            -81.3525
   XY=             -2.0881   XZ=              0.7246   YZ=              2.0414

 Normal termination of Gaussian 16 at Sun Jul  2 13:14:55 2023.
