 Gaussian 16, Revision C.02,
 Gaussian 16:  ES64L-G16RevC.02  7-Dec-2021

 ---------------------------------------------------------
 #MP2/6-31G* SCF=Tight Opt=(ModRedun, MaxCycle=20 ) NoSymm
 ---------------------------------------------------------

 --------
 MolName:
 --------
 Symbolic Z-matrix:
 Charge =  0 Multiplicity = 1

 SCF Done:  E(RHF) =  -661.272365015     A.U. after   16 cycles
 E2 =    -0.2038179489D+01 EUMP2 =    -0.66331054450396D+03
 SCF Done:  E(RHF) =  -661.290566409     A.U. after   15 cycles
 E2 =    -0.2033529395D+01 EUMP2 =    -0.66332409580358D+03
 SCF Done:  E(RHF) =  -661.292555280     A.U. after   15 cycles
 E2 =    -0.2034176261D+01 EUMP2 =    -0.66332673154122D+03
 SCF Done:  E(RHF) =  -661.287353031     A.U. after   17 cycles
 E2 =    -0.2036381406D+01 EUMP2 =    -0.66332373443680D+03
 SCF Done:  E(RHF) =  -661.294579777     A.U. after   14 cycles
 E2 =    -0.2035757767D+01 EUMP2 =    -0.66333033754367D+03
 SCF Done:  E(RHF) =  -661.295626809     A.U. after   13 cycles
 E2 =    -0.2035367904D+01 EUMP2 =    -0.66333099471329D+03
 SCF Done:  E(RHF) =  -661.296091069     A.U. after   14 cycles
 E2 =    -0.2035054951D+01 EUMP2 =    -0.66333114601956D+03
 SCF Done:  E(RHF) =  -661.296058029     A.U. after   11 cycles
 E2 =    -0.2035108614D+01 EUMP2 =    -0.66333116664297D+03
 SCF Done:  E(RHF) =  -661.295995066     A.U. after   11 cycles
 E2 =    -0.2035173671D+01 EUMP2 =    -0.66333116873678D+03
 SCF Done:  E(RHF) =  -661.295978918     A.U. after    9 cycles
 E2 =    -0.2035189971D+01 EUMP2 =    -0.66333116888908D+03
 Optimization completed.
    -- Stationary point found.

                          Input orientation:
 ---------------------------------------------------------------------
 Center     Atomic      Atomic             Coordinates (Angstroms)
 Number     Number       Type             X           Y           Z
 ---------------------------------------------------------------------
      1          8           0       -3.483916   -1.445516   -0.198932
      2          7           0       -3.118161   -0.279058    0.046206
      3          8           0       -3.901717    0.645018    0.336918
      4          6           0       -1.690892   -0.016341   -0.000307
      5          6           0       -1.308619    1.260963    0.310354
      6          7           0       -0.067879    1.776044    0.200053
      7          6           0        1.187474    1.027189    0.244536
      8          1           0        1.763151    1.488849    1.063483
      9          6           0        1.989044    1.036754   -1.045672
     10          6           0        3.372334    0.433535   -0.779165
     11          6           0        3.278569   -0.962415   -0.157203
     12          6           0        2.388142   -0.972966    1.088460
     13          6           0        0.998078   -0.413279    0.768821
     14          1           0        0.380755   -0.360713    1.681151
     15          7           0        0.384935   -1.324006   -0.193275
     16          6           0       -0.850888   -1.092172   -0.508426
     17          1           0       -2.093098    1.968461    0.564708
     18          1           0        0.008899    2.743491    0.494079
     19          1           0        1.448392    0.455935   -1.800918
     20          1           0        2.081036    2.062551   -1.423642
     21          1           0        3.946057    0.394512   -1.712146
     22          1           0        3.922825    1.100984   -0.101292
     23          1           0        2.853663   -1.658468   -0.887834
     24          1           0        4.280818   -1.327688    0.095670
     25          1           0        2.272346   -1.995391    1.463263
     26          1           0        2.848920   -0.382197    1.892598
     27          1           0       -1.329245   -1.802055   -1.182520
 ---------------------------------------------------------------------

 Alpha  occ. eigenvalues --  -20.59349 -20.59010 -15.84789 -15.63729 -15.56593
 Alpha  occ. eigenvalues --  -11.34939 -11.29672 -11.29578 -11.28754 -11.27153
 Alpha  occ. eigenvalues --  -11.23735 -11.23235 -11.22782 -11.22220  -1.57197
 Alpha  occ. eigenvalues --   -1.36813  -1.30760  -1.23306  -1.14657  -1.09887
 Alpha  occ. eigenvalues --   -1.02769  -1.01303  -0.94447  -0.89594  -0.85621
 Alpha  occ. eigenvalues --   -0.82440  -0.78356  -0.77491  -0.75159  -0.71738
 Alpha  occ. eigenvalues --   -0.69920  -0.69461  -0.67767  -0.65017  -0.63446
 Alpha  occ. eigenvalues --   -0.62474  -0.60532  -0.57452  -0.57231  -0.55009
 Alpha  occ. eigenvalues --   -0.54560  -0.50848  -0.49875  -0.48669  -0.48053
 Alpha  occ. eigenvalues --   -0.47461  -0.46268  -0.46051  -0.43716  -0.41673
 Alpha  occ. eigenvalues --   -0.40506  -0.34109
 Alpha virt. eigenvalues --    0.07141   0.11805   0.17512   0.21667   0.23729
 Alpha virt. eigenvalues --    0.25179   0.27136   0.28452   0.28899   0.29737
 Alpha virt. eigenvalues --    0.30521   0.31640   0.31983   0.32618   0.34053

 Mulliken charges:
               1
     1  O   -0.466658
     2  N    0.488373
     3  O   -0.501580
     4  C    0.014002
     5  C    0.168245
     6  N   -0.762924
     7  C    0.057679
     8  H    0.176761
     9  C   -0.300267
    10  C   -0.328700
    11  C   -0.320329
    12  C   -0.308416
    13  C   -0.048862
    14  H    0.186721
    15  N   -0.489851
    16  C    0.116270
    17  H    0.293782
    18  H    0.399069
    19  H    0.190614
    20  H    0.164566
    21  H    0.174716
    22  H    0.150603
    23  H    0.197117
    24  H    0.165369
    25  H    0.187888
    26  H    0.150354
    27  H    0.245460
 Sum of Mulliken charges =  -0.00000

 Dipole moment (field-independent basis, Debye):
    X=              5.3560    Y=              4.7589    Z=              1.0508  Tot=              7.2414
 Quadrupole moment (field-independent basis, Debye-Ang):
   XX=           -105.6714   YY=            -79.9786   ZZ=            -81.3386
   XY=             -2.4066   XZ=              1.6103   YZ=              2.1309

 Normal termination of Gaussian 16 at Sun Jul  2 13:36:36 2023.
