 Gaussian 16, Revision C.02,
 Gaussian 16:  ES64L-G16RevC.02  7-Dec-2021

 ---------------------------------------------------------
 #MP2/6-31G* SCF=Tight Opt=(ModRedun, MaxCycle=20 ) NoSymm
 ---------------------------------------------------------

 --------
 MolName:
 --------
 Symbolic Z-matrix:
 Charge =  0 Multiplicity = 1

 SCF Done:  E(RHF) =  -661.270223079     A.U. after   16 cycles
 E2 =    -0.2038382068D+01 EUMP2 =    -0.66330860514665D+03
 SCF Done:  E(RHF) =  -661.290498933     A.U. after   15 cycles
 E2 =    -0.2034467658D+01 EUMP2 =    -0.66332496659091D+03
 SCF Done:  E(RHF) =  -661.293167786     A.U. after   15 cycles
 E2 =    -0.2035402080D+01 EUMP2 =    -0.66332856986627D+03
 SCF Done:  E(RHF) =  -661.282208982     A.U. after   17 cycles
 E2 =    -0.2038398855D+01 EUMP2 =    -0.66332060783771D+03
 SCF Done:  E(RHF) =  -661.293181091     A.U. after   15 cycles
 E2 =    -0.2036635597D+01 EUMP2 =    -0.66332981668817D+03
 SCF Done:  E(RHF) =  -661.294058065     A.U. after   12 cycles
 E2 =    -0.2035996419D+01 EUMP2 =    -0.66333005448362D+03
 SCF Done:  E(RHF) =  -661.294505964     A.U. after   11 cycles
 E2 =    -0.2035569092D+01 EUMP2 =    -0.66333007505672D+03
 SCF Done:  E(RHF) =  -661.294531646     A.U. after   10 cycles
 E2 =    -0.2035546429D+01 EUMP2 =    -0.66333007807493D+03
 Optimization completed.
    -- Stationary point found.

                          Input orientation:
 ---------------------------------------------------------------------
 Center     Atomic      Atomic             Coordinates (Angstroms)
 Number     Number       Type             X           Y           Z
 ---------------------------------------------------------------------
      1          8           0       -3.490333   -1.335336   -0.565440
      2          7           0       -3.090076   -0.181432   -0.317615
      3          8           0       -3.838412    0.814752   -0.290753
      4          6           0       -1.671946   -0.016917   -0.034401
      5          6           0       -1.276664    1.268932    0.234059
      6          7           0       -0.058505    1.700837    0.602629
      7          6           0        1.223975    1.015975    0.488199
      8          1           0        1.927230    1.621330    1.076791
      9          6           0        1.808073    1.030264   -0.931852
     10          6           0        3.216190    0.423840   -0.884132
     11          6           0        3.224976   -0.972186   -0.255467
     12          6           0        2.543714   -0.987150    1.113803
     13          6           0        1.117956   -0.438323    0.978637
     14          1           0        0.591320   -0.453661    1.943145
     15          7           0        0.429759   -1.305432    0.026006
     16          6           0       -0.827810   -1.175789   -0.247591
     17          1           0       -2.057851    2.023366    0.258982
     18          1           0        0.004809    2.704187    0.737678
     19          1           0        1.158017    0.456306   -1.600391
     20          1           0        1.842767    2.061120   -1.306395
     21          1           0        3.638449    0.387122   -1.894949
     22          1           0        3.865868    1.091156   -0.299664
     23          1           0        2.694127   -1.671862   -0.907964
     24          1           0        4.257691   -1.330018   -0.165794
     25          1           0        2.494883   -2.009879    1.501767
     26          1           0        3.107161   -0.383663    1.838440
     27          1           0       -1.274349   -1.974496   -0.839746
 ---------------------------------------------------------------------

 Alpha  occ. eigenvalues --  -20.59316 -20.58981 -15.84795 -15.64029 -15.55873
 Alpha  occ. eigenvalues --  -11.34983 -11.29675 -11.29585 -11.28750 -11.27169
 Alpha  occ. eigenvalues --  -11.23775 -11.23223 -11.22609 -11.21994  -1.57201
 Alpha  occ. eigenvalues --   -1.36788  -1.30880  -1.22843  -1.14729  -1.09740
 Alpha  occ. eigenvalues --   -1.02762  -1.01296  -0.94461  -0.89724  -0.85508
 Alpha  occ. eigenvalues --   -0.82417  -0.78636  -0.77383  -0.74959  -0.71828
 Alpha  occ. eigenvalues --   -0.69804  -0.69511  -0.67958  -0.64787  -0.64150
 Alpha  occ. eigenvalues --   -0.62286  -0.60049  -0.57924  -0.56725  -0.55048
 Alpha  occ. eigenvalues --   -0.54620  -0.50725  -0.50201  -0.48781  -0.48183
 Alpha  occ. eigenvalues --   -0.47384  -0.46207  -0.45893  -0.43749  -0.41793
 Alpha  occ. eigenvalues --   -0.39164  -0.33736
 Alpha virt. eigenvalues --    0.07211   0.11489   0.17287   0.21993   0.24302
 Alpha virt. eigenvalues --    0.25987   0.27082   0.28730   0.29255   0.29432
 Alpha virt. eigenvalues --    0.30732   0.31962   0.32087   0.32808   0.33703

 Mulliken charges:
               1
     1  O   -0.467016
     2  N    0.494059
     3  O   -0.503076
     4  C    0.004769
     5  C    0.180312
     6  N   -0.762560
     7  C    0.038229
     8  H    0.184797
     9  C   -0.305596
    10  C   -0.326730
    11  C   -0.323053
    12  C   -0.303548
    13  C   -0.023700
    14  H    0.196962
    15  N   -0.526972
    16  C    0.121418
    17  H    0.295202
    18  H    0.400505
    19  H    0.190318
    20  H    0.157980
    21  H    0.174854
    22  H    0.148605
    23  H    0.202188
    24  H    0.163938
    25  H    0.185643
    26  H    0.150789
    27  H    0.251681
 Sum of Mulliken charges =  -0.00000

 Dipole moment (field-independent basis, Debye):
    X=              5.3767    Y=              4.6292    Z=              1.5081  Tot=              7.2534
 Quadrupole moment (field-independent basis, Debye-Ang):
   XX=           -105.5702   YY=            -78.8502   ZZ=            -82.1922
   XY=             -0.9522   XZ=             -2.2169   YZ=              1.4838

 Normal termination of Gaussian 16 at Sat Jul  1 02:57:00 2023.
