 Gaussian 16, Revision C.02,
 Gaussian 16:  ES64L-G16RevC.02  7-Dec-2021

 ---------------------------------------------------------
 #MP2/6-31G* SCF=Tight Opt=(ModRedun, MaxCycle=20 ) NoSymm
 ---------------------------------------------------------

 --------
 MolName:
 --------
 Symbolic Z-matrix:
 Charge =  0 Multiplicity = 1

 SCF Done:  E(RHF) =  -661.275248759     A.U. after   16 cycles
 E2 =    -0.2037975705D+01 EUMP2 =    -0.66331322446343D+03
 SCF Done:  E(RHF) =  -661.293479404     A.U. after   15 cycles
 E2 =    -0.2033220794D+01 EUMP2 =    -0.66332670019750D+03
 SCF Done:  E(RHF) =  -661.292389343     A.U. after   15 cycles
 E2 =    -0.2033944213D+01 EUMP2 =    -0.66332633355634D+03
 SCF Done:  E(RHF) =  -661.291840192     A.U. after   16 cycles
 E2 =    -0.2035213535D+01 EUMP2 =    -0.66332705372694D+03
 SCF Done:  E(RHF) =  -661.295530159     A.U. after   11 cycles
 E2 =    -0.2034095521D+01 EUMP2 =    -0.66332962568043D+03
 SCF Done:  E(RHF) =  -661.296157492     A.U. after   14 cycles
 E2 =    -0.2035037236D+01 EUMP2 =    -0.66333119472795D+03
 SCF Done:  E(RHF) =  -661.296687363     A.U. after   13 cycles
 E2 =    -0.2034764372D+01 EUMP2 =    -0.66333145173527D+03
 SCF Done:  E(RHF) =  -661.296939994     A.U. after   12 cycles
 E2 =    -0.2034543322D+01 EUMP2 =    -0.66333148331652D+03
 SCF Done:  E(RHF) =  -661.296995629     A.U. after   11 cycles
 E2 =    -0.2034498661D+01 EUMP2 =    -0.66333149428969D+03
 SCF Done:  E(RHF) =  -661.296961382     A.U. after   11 cycles
 E2 =    -0.2034536939D+01 EUMP2 =    -0.66333149832057D+03
 SCF Done:  E(RHF) =  -661.296957582     A.U. after   10 cycles
 E2 =    -0.2034541582D+01 EUMP2 =    -0.66333149916437D+03
 Optimization completed.
    -- Stationary point found.

                          Input orientation:
 ---------------------------------------------------------------------
 Center     Atomic      Atomic             Coordinates (Angstroms)
 Number     Number       Type             X           Y           Z
 ---------------------------------------------------------------------
      1          8           0       -3.546054   -1.377335   -0.461868
      2          7           0       -3.169290   -0.250026   -0.086577
      3          8           0       -3.942675    0.686665    0.192564
      4          6           0       -1.750553   -0.050127    0.054949
      5          6           0       -1.303420    1.232079    0.278847
      6          7           0       -0.059696    1.723966    0.372875
      7          6           0        1.212772    1.021340    0.346709
      8          1           0        1.854112    1.568538    1.055340
      9          6           0        1.921601    1.024695   -1.005470
     10          6           0        3.319292    0.419845   -0.827303
     11          6           0        3.269618   -0.972124   -0.190758
     12          6           0        2.466608   -0.977532    1.112477
     13          6           0        1.063021   -0.412978    0.873542
     14          1           0        0.483803   -0.382230    1.810439
     15          7           0        0.413001   -1.277968   -0.101796
     16          6           0       -0.827321   -1.082618   -0.410067
     17          1           0       -2.079455    1.982832    0.419784
     18          1           0       -0.009492    2.723659    0.529986
     19          1           0        1.333396    0.444615   -1.723568
     20          1           0        1.991335    2.051319   -1.386742
     21          1           0        3.830020    0.375045   -1.795949
     22          1           0        3.914327    1.091240   -0.191865
     23          1           0        2.798840   -1.673976   -0.885940
     24          1           0        4.288510   -1.331634   -0.004294
     25          1           0        2.374239   -1.998868    1.496842
     26          1           0        2.976361   -0.382729    1.883087
     27          1           0       -1.259920   -1.810694   -1.099246
 ---------------------------------------------------------------------

 Alpha  occ. eigenvalues --  -20.59295 -20.58980 -15.84957 -15.64418 -15.56157
 Alpha  occ. eigenvalues --  -11.35194 -11.29611 -11.29610 -11.28636 -11.27090
 Alpha  occ. eigenvalues --  -11.23772 -11.23262 -11.22748 -11.22139  -1.57225
 Alpha  occ. eigenvalues --   -1.36815  -1.31263  -1.23133  -1.14821  -1.09944
 Alpha  occ. eigenvalues --   -1.02890  -1.01515  -0.94506  -0.89997  -0.85763
 Alpha  occ. eigenvalues --   -0.82309  -0.78612  -0.77409  -0.75067  -0.72489
 Alpha  occ. eigenvalues --   -0.69811  -0.69636  -0.67969  -0.64918  -0.63754
 Alpha  occ. eigenvalues --   -0.62323  -0.59763  -0.57798  -0.57038  -0.54956
 Alpha  occ. eigenvalues --   -0.54588  -0.50888  -0.50046  -0.48734  -0.48060
 Alpha  occ. eigenvalues --   -0.47443  -0.46263  -0.46135  -0.43717  -0.41692
 Alpha  occ. eigenvalues --   -0.39847  -0.33977
 Alpha virt. eigenvalues --    0.07362   0.12071   0.17273   0.21826   0.23827
 Alpha virt. eigenvalues --    0.25291   0.27142   0.28409   0.29040   0.29678
 Alpha virt. eigenvalues --    0.30774   0.31852   0.32051   0.32720   0.33804

 Mulliken charges:
               1
     1  O   -0.466311
     2  N    0.480167
     3  O   -0.498719
     4  C    0.023769
     5  C    0.193075
     6  N   -0.777256
     7  C    0.060945
     8  H    0.179849
     9  C   -0.301565
    10  C   -0.328616
    11  C   -0.320619
    12  C   -0.306608
    13  C   -0.036352
    14  H    0.190216
    15  N   -0.506420
    16  C    0.107482
    17  H    0.281189
    18  H    0.406756
    19  H    0.191951
    20  H    0.159718
    21  H    0.174993
    22  H    0.149519
    23  H    0.199644
    24  H    0.164545
    25  H    0.186256
    26  H    0.151010
    27  H    0.241380
 Sum of Mulliken charges =  -0.00000

 Dipole moment (field-independent basis, Debye):
    X=              5.5478    Y=              4.8394    Z=              1.0832  Tot=              7.4412
 Quadrupole moment (field-independent basis, Debye-Ang):
   XX=           -106.6500   YY=            -79.0465   ZZ=            -81.8886
   XY=             -2.0150   XZ=              0.2631   YZ=              0.8751

 Normal termination of Gaussian 16 at Sat Jul  1 19:31:41 2023.
