 Gaussian 16, Revision C.02,
 Gaussian 16:  ES64L-G16RevC.02  7-Dec-2021

 ---------------------------------------------------------
 #MP2/6-31G* SCF=Tight Opt=(ModRedun, MaxCycle=20 ) NoSymm
 ---------------------------------------------------------

 --------
 MolName:
 --------
 Symbolic Z-matrix:
 Charge =  0 Multiplicity = 1

 SCF Done:  E(RHF) =  -661.279266451     A.U. after   16 cycles
 E2 =    -0.2037451178D+01 EUMP2 =    -0.66331671762876D+03
 SCF Done:  E(RHF) =  -661.296981563     A.U. after   15 cycles
 E2 =    -0.2032813298D+01 EUMP2 =    -0.66332979486191D+03
 SCF Done:  E(RHF) =  -661.299111223     A.U. after   14 cycles
 E2 =    -0.2033165508D+01 EUMP2 =    -0.66333227673123D+03
 SCF Done:  E(RHF) =  -661.286667509     A.U. after   17 cycles
 E2 =    -0.2036296166D+01 EUMP2 =    -0.66332296367424D+03
 SCF Done:  E(RHF) =  -661.298622761     A.U. after   14 cycles
 E2 =    -0.2034991982D+01 EUMP2 =    -0.66333361474368D+03
 SCF Done:  E(RHF) =  -661.299248498     A.U. after   13 cycles
 E2 =    -0.2034536616D+01 EUMP2 =    -0.66333378511387D+03
 SCF Done:  E(RHF) =  -661.299751603     A.U. after   12 cycles
 E2 =    -0.2034086462D+01 EUMP2 =    -0.66333383806479D+03
 SCF Done:  E(RHF) =  -661.299754912     A.U. after   11 cycles
 E2 =    -0.2034093484D+01 EUMP2 =    -0.66333384839646D+03
 SCF Done:  E(RHF) =  -661.299666745     A.U. after   11 cycles
 E2 =    -0.2034184480D+01 EUMP2 =    -0.66333385122479D+03
 SCF Done:  E(RHF) =  -661.299651355     A.U. after   10 cycles
 E2 =    -0.2034200395D+01 EUMP2 =    -0.66333385174928D+03
 Optimization completed.
    -- Stationary point found.

                          Input orientation:
 ---------------------------------------------------------------------
 Center     Atomic      Atomic             Coordinates (Angstroms)
 Number     Number       Type             X           Y           Z
 ---------------------------------------------------------------------
      1          8           0       -3.527019   -1.386873   -0.413489
      2          7           0       -3.146221   -0.240790   -0.104937
      3          8           0       -3.920288    0.710236    0.118076
      4          6           0       -1.720282   -0.035553    0.018838
      5          6           0       -1.302146    1.246773    0.277841
      6          7           0       -0.057996    1.737063    0.380053
      7          6           0        1.209856    1.023156    0.352981
      8          1           0        1.854648    1.561517    1.064612
      9          6           0        1.915428    1.029837   -1.001295
     10          6           0        3.313369    0.423723   -0.830523
     11          6           0        3.264359   -0.970142   -0.198555
     12          6           0        2.465829   -0.977583    1.107087
     13          6           0        1.059294   -0.418004    0.869555
     14          1           0        0.481588   -0.391620    1.807310
     15          7           0        0.410534   -1.297288   -0.095605
     16          6           0       -0.833258   -1.110907   -0.398159
     17          1           0       -2.086966    1.985780    0.422980
     18          1           0       -0.003586    2.729416    0.577015
     19          1           0        1.323733    0.450908   -1.717947
     20          1           0        1.983297    2.056948   -1.381230
     21          1           0        3.820328    0.381839   -1.801306
     22          1           0        3.911222    1.092585   -0.195085
     23          1           0        2.789608   -1.669487   -0.893707
     24          1           0        4.283352   -1.331951   -0.017069
     25          1           0        2.376695   -1.999097    1.491463
     26          1           0        2.976094   -0.381191    1.876091
     27          1           0       -1.279472   -1.855282   -1.058996
 ---------------------------------------------------------------------

 Alpha  occ. eigenvalues --  -20.59268 -20.58942 -15.84851 -15.64277 -15.56128
 Alpha  occ. eigenvalues --  -11.35095 -11.29614 -11.29575 -11.28626 -11.27108
 Alpha  occ. eigenvalues --  -11.23749 -11.23234 -11.22718 -11.22113  -1.57177
 Alpha  occ. eigenvalues --   -1.36766  -1.31117  -1.23094  -1.14765  -1.09886
 Alpha  occ. eigenvalues --   -1.02848  -1.01416  -0.94498  -0.89858  -0.85663
 Alpha  occ. eigenvalues --   -0.82384  -0.78611  -0.77418  -0.75138  -0.72265
 Alpha  occ. eigenvalues --   -0.69795  -0.69546  -0.67897  -0.64903  -0.63774
 Alpha  occ. eigenvalues --   -0.62330  -0.60028  -0.57753  -0.57019  -0.55014
 Alpha  occ. eigenvalues --   -0.54586  -0.50823  -0.50077  -0.48694  -0.48092
 Alpha  occ. eigenvalues --   -0.47410  -0.46200  -0.46096  -0.43701  -0.41692
 Alpha  occ. eigenvalues --   -0.39852  -0.33901
 Alpha virt. eigenvalues --    0.07399   0.11934   0.17286   0.21844   0.24020
 Alpha virt. eigenvalues --    0.25531   0.27148   0.28562   0.29047   0.29676
 Alpha virt. eigenvalues --    0.30735   0.31817   0.32039   0.32745   0.33887

 Mulliken charges:
               1
     1  O   -0.466535
     2  N    0.485069
     3  O   -0.501877
     4  C    0.011704
     5  C    0.191823
     6  N   -0.779310
     7  C    0.060903
     8  H    0.179886
     9  C   -0.301542
    10  C   -0.328297
    11  C   -0.321097
    12  C   -0.306592
    13  C   -0.036500
    14  H    0.189916
    15  N   -0.509270
    16  C    0.115186
    17  H    0.288230
    18  H    0.405853
    19  H    0.191063
    20  H    0.160624
    21  H    0.174828
    22  H    0.149429
    23  H    0.199816
    24  H    0.164544
    25  H    0.186645
    26  H    0.150635
    27  H    0.244868
 Sum of Mulliken charges =  -0.00000

 Dipole moment (field-independent basis, Debye):
    X=              5.4837    Y=              4.8197    Z=              1.1956  Tot=              7.3979
 Quadrupole moment (field-independent basis, Debye-Ang):
   XX=           -106.4074   YY=            -79.1584   ZZ=            -81.6588
   XY=             -1.8865   XZ=              0.0359   YZ=              1.4073

 Normal termination of Gaussian 16 at Sat Jul  1 19:05:58 2023.
