 Gaussian 16, Revision C.02,
 Gaussian 16:  ES64L-G16RevC.02  7-Dec-2021

 ---------------------------------------------------------
 #MP2/6-31G* SCF=Tight Opt=(ModRedun, MaxCycle=20 ) NoSymm
 ---------------------------------------------------------

 --------
 MolName:
 --------
 Symbolic Z-matrix:
 Charge =  0 Multiplicity = 1

 SCF Done:  E(RHF) =  -661.281130797     A.U. after   16 cycles
 E2 =    -0.2037279488D+01 EUMP2 =    -0.66331841028473D+03
 SCF Done:  E(RHF) =  -661.298341492     A.U. after   15 cycles
 E2 =    -0.2032811632D+01 EUMP2 =    -0.66333115312439D+03
 SCF Done:  E(RHF) =  -661.298608629     A.U. after   15 cycles
 E2 =    -0.2033413333D+01 EUMP2 =    -0.66333202196207D+03
 SCF Done:  E(RHF) =  -661.291642961     A.U. after   17 cycles
 E2 =    -0.2035676215D+01 EUMP2 =    -0.66332731917568D+03
 SCF Done:  E(RHF) =  -661.299150678     A.U. after   14 cycles
 E2 =    -0.2035047485D+01 EUMP2 =    -0.66333419816258D+03
 SCF Done:  E(RHF) =  -661.299833391     A.U. after   13 cycles
 E2 =    -0.2034711241D+01 EUMP2 =    -0.66333454463228D+03
 SCF Done:  E(RHF) =  -661.300373663     A.U. after   12 cycles
 E2 =    -0.2034256150D+01 EUMP2 =    -0.66333462981315D+03
 SCF Done:  E(RHF) =  -661.300471119     A.U. after   11 cycles
 E2 =    -0.2034175515D+01 EUMP2 =    -0.66333464663399D+03
 SCF Done:  E(RHF) =  -661.300413278     A.U. after   10 cycles
 E2 =    -0.2034235815D+01 EUMP2 =    -0.66333464909323D+03
 SCF Done:  E(RHF) =  -661.300353760     A.U. after    9 cycles
 E2 =    -0.2034295586D+01 EUMP2 =    -0.66333464934653D+03
 Optimization completed.
    -- Stationary point found.

                          Input orientation:
 ---------------------------------------------------------------------
 Center     Atomic      Atomic             Coordinates (Angstroms)
 Number     Number       Type             X           Y           Z
 ---------------------------------------------------------------------
      1          8           0       -3.507030   -1.390374   -0.370773
      2          7           0       -3.121146   -0.232268   -0.118392
      3          8           0       -3.895364    0.728870    0.055454
      4          6           0       -1.686636   -0.023893   -0.009596
      5          6           0       -1.301385    1.260556    0.275414
      6          7           0       -0.057162    1.750168    0.386407
      7          6           0        1.205663    1.024036    0.359317
      8          1           0        1.853461    1.553029    1.074649
      9          6           0        1.908983    1.035067   -0.996591
     10          6           0        3.307379    0.428436   -0.832668
     11          6           0        3.259479   -0.967642   -0.206006
     12          6           0        2.464652   -0.978220    1.101546
     13          6           0        1.054901   -0.424546    0.865234
     14          1           0        0.478445   -0.403204    1.803711
     15          7           0        0.408324   -1.318043   -0.090821
     16          6           0       -0.839080   -1.138330   -0.386101
     17          1           0       -2.096181    1.987427    0.419079
     18          1           0        0.001628    2.735354    0.615566
     19          1           0        1.314636    0.457540   -1.712647
     20          1           0        1.974896    2.062978   -1.374415
     21          1           0        3.811211    0.390292   -1.805270
     22          1           0        3.907246    1.094787   -0.196517
     23          1           0        2.781698   -1.664460   -0.901768
     24          1           0        4.278669   -1.331161   -0.028971
     25          1           0        2.379258   -2.000152    1.485416
     26          1           0        2.974690   -0.380352    1.869517
     27          1           0       -1.300224   -1.892925   -1.022744
 ---------------------------------------------------------------------

 Alpha  occ. eigenvalues --  -20.59237 -20.58904 -15.84722 -15.64136 -15.56113
 Alpha  occ. eigenvalues --  -11.35017 -11.29623 -11.29561 -11.28629 -11.27134
 Alpha  occ. eigenvalues --  -11.23729 -11.23208 -11.22692 -11.22089  -1.57115
 Alpha  occ. eigenvalues --   -1.36708  -1.30977  -1.23065  -1.14703  -1.09819
 Alpha  occ. eigenvalues --   -1.02805  -1.01307  -0.94481  -0.89685  -0.85566
 Alpha  occ. eigenvalues --   -0.82448  -0.78609  -0.77411  -0.75202  -0.72020
 Alpha  occ. eigenvalues --   -0.69770  -0.69437  -0.67820  -0.64893  -0.63777
 Alpha  occ. eigenvalues --   -0.62367  -0.60282  -0.57700  -0.57001  -0.55077
 Alpha  occ. eigenvalues --   -0.54582  -0.50762  -0.50108  -0.48656  -0.48102
 Alpha  occ. eigenvalues --   -0.47371  -0.46146  -0.46045  -0.43677  -0.41695
 Alpha  occ. eigenvalues --   -0.39849  -0.33830
 Alpha virt. eigenvalues --    0.07464   0.11798   0.17307   0.21848   0.24112
 Alpha virt. eigenvalues --    0.25663   0.27134   0.28695   0.29043   0.29635
 Alpha virt. eigenvalues --    0.30682   0.31797   0.32036   0.32766   0.33950

 Mulliken charges:
               1
     1  O   -0.467216
     2  N    0.491282
     3  O   -0.504047
     4  C    0.000450
     5  C    0.188855
     6  N   -0.780295
     7  C    0.060271
     8  H    0.180083
     9  C   -0.301428
    10  C   -0.327939
    11  C   -0.321492
    12  C   -0.306652
    13  C   -0.037200
    14  H    0.189955
    15  N   -0.511205
    16  C    0.120087
    17  H    0.295307
    18  H    0.404874
    19  H    0.190181
    20  H    0.161387
    21  H    0.174646
    22  H    0.149361
    23  H    0.199935
    24  H    0.164541
    25  H    0.187062
    26  H    0.150347
    27  H    0.248851
 Sum of Mulliken charges =  -0.00000

 Dipole moment (field-independent basis, Debye):
    X=              5.4162    Y=              4.7956    Z=              1.2813  Tot=              7.3467
 Quadrupole moment (field-independent basis, Debye-Ang):
   XX=           -106.1426   YY=            -79.2264   ZZ=            -81.5005
   XY=             -1.7653   XZ=             -0.1339   YZ=              1.8581

 Normal termination of Gaussian 16 at Sat Jul  1 17:56:05 2023.
