 Gaussian 16, Revision C.02,
 Gaussian 16:  ES64L-G16RevC.02  7-Dec-2021

 ---------------------------------------------------------
 #MP2/6-31G* SCF=Tight Opt=(ModRedun, MaxCycle=20 ) NoSymm
 ---------------------------------------------------------

 --------
 MolName:
 --------
 Symbolic Z-matrix:
 Charge =  0 Multiplicity = 1

 SCF Done:  E(RHF) =  -661.280714905     A.U. after   16 cycles
 E2 =    -0.2037449829D+01 EUMP2 =    -0.66331816473405D+03
 SCF Done:  E(RHF) =  -661.297420961     A.U. after   15 cycles
 E2 =    -0.2033234061D+01 EUMP2 =    -0.66333065502265D+03
 SCF Done:  E(RHF) =  -661.292476616     A.U. after   17 cycles
 E2 =    -0.2034454225D+01 EUMP2 =    -0.66332693084047D+03
 SCF Done:  E(RHF) =  -661.294447820     A.U. after   15 cycles
 E2 =    -0.2035287522D+01 EUMP2 =    -0.66332973534216D+03
 SCF Done:  E(RHF) =  -661.298493759     A.U. after   11 cycles
 E2 =    -0.2034006575D+01 EUMP2 =    -0.66333250033480D+03
 SCF Done:  E(RHF) =  -661.298521590     A.U. after   14 cycles
 E2 =    -0.2034912054D+01 EUMP2 =    -0.66333343364390D+03
 SCF Done:  E(RHF) =  -661.298579714     A.U. after   13 cycles
 E2 =    -0.2035152018D+01 EUMP2 =    -0.66333373173228D+03
 SCF Done:  E(RHF) =  -661.299001340     A.U. after   12 cycles
 E2 =    -0.2034806646D+01 EUMP2 =    -0.66333380798561D+03
 SCF Done:  E(RHF) =  -661.299047688     A.U. after   11 cycles
 E2 =    -0.2034781682D+01 EUMP2 =    -0.66333382937080D+03
 SCF Done:  E(RHF) =  -661.299052347     A.U. after   10 cycles
 E2 =    -0.2034778615D+01 EUMP2 =    -0.66333383096204D+03
 SCF Done:  E(RHF) =  -661.299060731     A.U. after    9 cycles
 E2 =    -0.2034770537D+01 EUMP2 =    -0.66333383126822D+03
 Optimization completed.
    -- Stationary point found.

                          Input orientation:
 ---------------------------------------------------------------------
 Center     Atomic      Atomic             Coordinates (Angstroms)
 Number     Number       Type             X           Y           Z
 ---------------------------------------------------------------------
      1          8           0       -3.486304   -1.388416   -0.340314
      2          7           0       -3.094956   -0.223614   -0.131027
      3          8           0       -3.869197    0.743926    0.002654
      4          6           0       -1.650408   -0.014289   -0.031483
      5          6           0       -1.300879    1.274283    0.269794
      6          7           0       -0.056804    1.763587    0.390748
      7          6           0        1.200600    1.024260    0.365430
      8          1           0        1.850652    1.543573    1.085240
      9          6           0        1.903534    1.039739   -0.991216
     10          6           0        3.302265    0.432854   -0.832443
     11          6           0        3.254927   -0.965425   -0.211229
     12          6           0        2.462173   -0.979259    1.097252
     13          6           0        1.049335   -0.431983    0.860802
     14          1           0        0.473366   -0.415699    1.799510
     15          7           0        0.406085   -1.339342   -0.087566
     16          6           0       -0.844730   -1.163762   -0.375378
     17          1           0       -2.106167    1.989121    0.406920
     18          1           0        0.006776    2.742490    0.644371
     19          1           0        1.307697    0.463802   -1.707721
     20          1           0        1.968044    2.068552   -1.366543
     21          1           0        3.804176    0.398600   -1.806206
     22          1           0        3.903238    1.096726   -0.194792
     23          1           0        2.775230   -1.659791   -0.908240
     24          1           0        4.274151   -1.330381   -0.037316
     25          1           0        2.380385   -2.001560    1.480631
     26          1           0        2.970946   -0.379755    1.864738
     27          1           0       -1.322147   -1.924226   -0.990616
 ---------------------------------------------------------------------

 Alpha  occ. eigenvalues --  -20.59203 -20.58865 -15.84576 -15.63995 -15.56109
 Alpha  occ. eigenvalues --  -11.34955 -11.29635 -11.29559 -11.28648 -11.27166
 Alpha  occ. eigenvalues --  -11.23710 -11.23182 -11.22669 -11.22067  -1.57047
 Alpha  occ. eigenvalues --   -1.36646  -1.30841  -1.23043  -1.14632  -1.09736
 Alpha  occ. eigenvalues --   -1.02762  -1.01189  -0.94458  -0.89484  -0.85472
 Alpha  occ. eigenvalues --   -0.82501  -0.78606  -0.77391  -0.75260  -0.71762
 Alpha  occ. eigenvalues --   -0.69734  -0.69321  -0.67743  -0.64884  -0.63765
 Alpha  occ. eigenvalues --   -0.62432  -0.60512  -0.57643  -0.56983  -0.55137
 Alpha  occ. eigenvalues --   -0.54573  -0.50703  -0.50138  -0.48622  -0.48087
 Alpha  occ. eigenvalues --   -0.47330  -0.46100  -0.45979  -0.43649  -0.41695
 Alpha  occ. eigenvalues --   -0.39844  -0.33760
 Alpha virt. eigenvalues --    0.07551   0.11673   0.17335   0.21845   0.24156
 Alpha virt. eigenvalues --    0.25694   0.27115   0.28769   0.29043   0.29547
 Alpha virt. eigenvalues --    0.30641   0.31796   0.32043   0.32786   0.33993

 Mulliken charges:
               1
     1  O   -0.468282
     2  N    0.497162
     3  O   -0.505354
     4  C   -0.008603
     5  C    0.185319
     6  N   -0.780800
     7  C    0.058986
     8  H    0.180427
     9  C   -0.301206
    10  C   -0.327552
    11  C   -0.321798
    12  C   -0.306793
    13  C   -0.038283
    14  H    0.190299
    15  N   -0.512282
    16  C    0.122089
    17  H    0.302064
    18  H    0.403875
    19  H    0.189352
    20  H    0.161984
    21  H    0.174448
    22  H    0.149307
    23  H    0.200018
    24  H    0.164528
    25  H    0.187488
    26  H    0.150142
    27  H    0.253465
 Sum of Mulliken charges =  -0.00000

 Dipole moment (field-independent basis, Debye):
    X=              5.3462    Y=              4.7692    Z=              1.3453  Tot=              7.2895
 Quadrupole moment (field-independent basis, Debye-Ang):
   XX=           -105.8647   YY=            -79.2437   ZZ=            -81.4109
   XY=             -1.6465   XZ=             -0.2716   YZ=              2.2043

 Normal termination of Gaussian 16 at Sat Jul  1 18:20:58 2023.
