 Gaussian 16, Revision C.02,
 Gaussian 16:  ES64L-G16RevC.02  7-Dec-2021

 ---------------------------------------------------------
 #MP2/6-31G* SCF=Tight Opt=(ModRedun, MaxCycle=20 ) NoSymm
 ---------------------------------------------------------

 --------
 MolName:
 --------
 Symbolic Z-matrix:
 Charge =  0 Multiplicity = 1

 SCF Done:  E(RHF) =  -661.277724859     A.U. after   16 cycles
 E2 =    -0.2037987670D+01 EUMP2 =    -0.66331571252949D+03
 SCF Done:  E(RHF) =  -661.294024938     A.U. after   15 cycles
 E2 =    -0.2034119196D+01 EUMP2 =    -0.66332814413386D+03
 SCF Done:  E(RHF) =  -661.286571532     A.U. after   17 cycles
 E2 =    -0.2035512197D+01 EUMP2 =    -0.66332208372873D+03
 SCF Done:  E(RHF) =  -661.291928580     A.U. after   15 cycles
 E2 =    -0.2035899139D+01 EUMP2 =    -0.66332782771889D+03
 SCF Done:  E(RHF) =  -661.295206088     A.U. after   11 cycles
 E2 =    -0.2034838762D+01 EUMP2 =    -0.66333004485052D+03
 SCF Done:  E(RHF) =  -661.295253232     A.U. after   14 cycles
 E2 =    -0.2035655505D+01 EUMP2 =    -0.66333090873691D+03
 SCF Done:  E(RHF) =  -661.295189671     A.U. after   12 cycles
 E2 =    -0.2036038525D+01 EUMP2 =    -0.66333122819671D+03
 SCF Done:  E(RHF) =  -661.295607168     A.U. after   13 cycles
 E2 =    -0.2035715248D+01 EUMP2 =    -0.66333132241530D+03
 SCF Done:  E(RHF) =  -661.295705647     A.U. after   12 cycles
 E2 =    -0.2035646000D+01 EUMP2 =    -0.66333135164692D+03
 SCF Done:  E(RHF) =  -661.295751070     A.U. after   10 cycles
 E2 =    -0.2035602457D+01 EUMP2 =    -0.66333135352704D+03
 SCF Done:  E(RHF) =  -661.295760622     A.U. after    9 cycles
 E2 =    -0.2035593192D+01 EUMP2 =    -0.66333135381374D+03
 Optimization completed.
    -- Stationary point found.

                          Input orientation:
 ---------------------------------------------------------------------
 Center     Atomic      Atomic             Coordinates (Angstroms)
 Number     Number       Type             X           Y           Z
 ---------------------------------------------------------------------
      1          8           0       -3.466348   -1.383970   -0.317664
      2          7           0       -3.068936   -0.216021   -0.139932
      3          8           0       -3.843031    0.755556   -0.038078
      4          6           0       -1.612710   -0.007208   -0.045245
      5          6           0       -1.300841    1.286979    0.263997
      6          7           0       -0.057089    1.776814    0.394184
      7          6           0        1.194783    1.024083    0.371083
      8          1           0        1.846748    1.533859    1.095483
      9          6           0        1.897984    1.044206   -0.985981
     10          6           0        3.297211    0.437635   -0.831780
     11          6           0        3.250839   -0.962836   -0.216031
     12          6           0        2.459688   -0.980354    1.093084
     13          6           0        1.043633   -0.440024    0.856525
     14          1           0        0.468208   -0.428796    1.795497
     15          7           0        0.404098   -1.361010   -0.084952
     16          6           0       -0.850278   -1.187734   -0.364384
     17          1           0       -2.116957    1.989571    0.391735
     18          1           0        0.011402    2.750255    0.667003
     19          1           0        1.301282    0.469827   -1.703390
     20          1           0        1.961069    2.074010   -1.358607
     21          1           0        3.797644    0.407523   -1.806476
     22          1           0        3.898751    1.099275   -0.192372
     23          1           0        2.769909   -1.654986   -0.914510
     24          1           0        4.270212   -1.328689   -0.044774
     25          1           0        2.381841   -2.003112    1.475839
     26          1           0        2.966807   -0.379225    1.860349
     27          1           0       -1.343929   -1.949597   -0.962616
 ---------------------------------------------------------------------

 Alpha  occ. eigenvalues --  -20.59168 -20.58825 -15.84414 -15.63853 -15.56125
 Alpha  occ. eigenvalues --  -11.34903 -11.29653 -11.29573 -11.28694 -11.27204
 Alpha  occ. eigenvalues --  -11.23692 -11.23158 -11.22652 -11.22048  -1.56968
 Alpha  occ. eigenvalues --   -1.36578  -1.30708  -1.23031  -1.14548  -1.09637
 Alpha  occ. eigenvalues --   -1.02720  -1.01064  -0.94430  -0.89265  -0.85384
 Alpha  occ. eigenvalues --   -0.82542  -0.78604  -0.77359  -0.75309  -0.71500
 Alpha  occ. eigenvalues --   -0.69687  -0.69198  -0.67668  -0.64878  -0.63739
 Alpha  occ. eigenvalues --   -0.62521  -0.60709  -0.57581  -0.56966  -0.55190
 Alpha  occ. eigenvalues --   -0.54558  -0.50648  -0.50162  -0.48588  -0.48047
 Alpha  occ. eigenvalues --   -0.47287  -0.46055  -0.45905  -0.43618  -0.41688
 Alpha  occ. eigenvalues --   -0.39847  -0.33693
 Alpha virt. eigenvalues --    0.07644   0.11564   0.17362   0.21835   0.24168
 Alpha virt. eigenvalues --    0.25644   0.27101   0.28758   0.29058   0.29430
 Alpha virt. eigenvalues --    0.30619   0.31807   0.32057   0.32801   0.34018

 Mulliken charges:
               1
     1  O   -0.469551
     2  N    0.501395
     3  O   -0.506178
     4  C   -0.015141
     5  C    0.182123
     6  N   -0.781313
     7  C    0.057123
     8  H    0.180862
     9  C   -0.300835
    10  C   -0.327155
    11  C   -0.322009
    12  C   -0.306992
    13  C   -0.039682
    14  H    0.190869
    15  N   -0.512600
    16  C    0.122400
    17  H    0.308417
    18  H    0.402888
    19  H    0.188573
    20  H    0.162475
    21  H    0.174241
    22  H    0.149255
    23  H    0.200053
    24  H    0.164510
    25  H    0.187909
    26  H    0.150019
    27  H    0.258343
 Sum of Mulliken charges =  -0.00000

 Dipole moment (field-independent basis, Debye):
    X=              5.2774    Y=              4.7412    Z=              1.3911  Tot=              7.2295
 Quadrupole moment (field-independent basis, Debye-Ang):
   XX=           -105.5953   YY=            -79.2365   ZZ=            -81.3645
   XY=             -1.5399   XZ=             -0.3680   YZ=              2.4689

 Normal termination of Gaussian 16 at Sat Jul  1 18:45:17 2023.
