 Gaussian 16, Revision C.02,
 Gaussian 16:  ES64L-G16RevC.02  7-Dec-2021

 ---------------------------------------------------------
 #MP2/6-31G* SCF=Tight Opt=(ModRedun, MaxCycle=20 ) NoSymm
 ---------------------------------------------------------

 --------
 MolName:
 --------
 Symbolic Z-matrix:
 Charge =  0 Multiplicity = 1

 SCF Done:  E(RHF) =  -661.278956870     A.U. after   16 cycles
 E2 =    -0.2037489869D+01 EUMP2 =    -0.66331644673872D+03
 SCF Done:  E(RHF) =  -661.296724072     A.U. after   15 cycles
 E2 =    -0.2032836150D+01 EUMP2 =    -0.66332956022264D+03
 SCF Done:  E(RHF) =  -661.298634765     A.U. after   14 cycles
 E2 =    -0.2033216860D+01 EUMP2 =    -0.66333185162537D+03
 SCF Done:  E(RHF) =  -661.287616555     A.U. after   17 cycles
 E2 =    -0.2036083468D+01 EUMP2 =    -0.66332370002283D+03
 SCF Done:  E(RHF) =  -661.298444278     A.U. after   14 cycles
 E2 =    -0.2034986481D+01 EUMP2 =    -0.66333343075981D+03
 SCF Done:  E(RHF) =  -661.299118037     A.U. after   13 cycles
 E2 =    -0.2034496027D+01 EUMP2 =    -0.66333361406376D+03
 SCF Done:  E(RHF) =  -661.299564045     A.U. after   12 cycles
 E2 =    -0.2034102577D+01 EUMP2 =    -0.66333366662221D+03
 SCF Done:  E(RHF) =  -661.299567121     A.U. after   11 cycles
 E2 =    -0.2034111785D+01 EUMP2 =    -0.66333367890662D+03
 SCF Done:  E(RHF) =  -661.299483620     A.U. after   11 cycles
 E2 =    -0.2034198660D+01 EUMP2 =    -0.66333368228004D+03
 SCF Done:  E(RHF) =  -661.299465470     A.U. after   10 cycles
 E2 =    -0.2034217388D+01 EUMP2 =    -0.66333368285759D+03
 Optimization completed.
    -- Stationary point found.

                          Input orientation:
 ---------------------------------------------------------------------
 Center     Atomic      Atomic             Coordinates (Angstroms)
 Number     Number       Type             X           Y           Z
 ---------------------------------------------------------------------
      1          8           0       -3.529049   -1.386990   -0.415492
      2          7           0       -3.148685   -0.242358   -0.101037
      3          8           0       -3.922752    0.707345    0.127611
      4          6           0       -1.723522   -0.037354    0.023685
      5          6           0       -1.302312    1.245008    0.278898
      6          7           0       -0.058220    1.735644    0.379481
      7          6           0        1.210214    1.023139    0.351949
      8          1           0        1.854978    1.562706    1.062750
      9          6           0        1.915327    1.029176   -1.002521
     10          6           0        3.313416    0.423411   -0.831630
     11          6           0        3.264877   -0.970080   -0.198758
     12          6           0        2.466651   -0.977032    1.107103
     13          6           0        1.060218   -0.417186    0.870059
     14          1           0        0.482875   -0.390139    1.808039
     15          7           0        0.410894   -1.295398   -0.095484
     16          6           0       -0.832739   -1.108494   -0.398068
     17          1           0       -2.086223    1.985149    0.424051
     18          1           0       -0.004356    2.728795    0.572539
     19          1           0        1.323636    0.449841   -1.718796
     20          1           0        1.983031    2.056128   -1.382945
     21          1           0        3.820204    0.381007   -1.802474
     22          1           0        3.911268    1.092792   -0.196740
     23          1           0        2.790209   -1.669940   -0.893428
     24          1           0        4.284009   -1.331477   -0.017258
     25          1           0        2.377527   -1.998426    1.491820
     26          1           0        2.977230   -0.380523    1.875809
     27          1           0       -1.277717   -1.851743   -1.061182
 ---------------------------------------------------------------------

 Alpha  occ. eigenvalues --  -20.59270 -20.58946 -15.84863 -15.64292 -15.56131
 Alpha  occ. eigenvalues --  -11.35104 -11.29614 -11.29578 -11.28627 -11.27106
 Alpha  occ. eigenvalues --  -11.23751 -11.23237 -11.22721 -11.22115  -1.57181
 Alpha  occ. eigenvalues --   -1.36770  -1.31133  -1.23098  -1.14772  -1.09893
 Alpha  occ. eigenvalues --   -1.02853  -1.01427  -0.94500  -0.89875  -0.85673
 Alpha  occ. eigenvalues --   -0.82377  -0.78612  -0.77417  -0.75131  -0.72288
 Alpha  occ. eigenvalues --   -0.69796  -0.69556  -0.67904  -0.64905  -0.63773
 Alpha  occ. eigenvalues --   -0.62328  -0.60002  -0.57758  -0.57021  -0.55008
 Alpha  occ. eigenvalues --   -0.54587  -0.50830  -0.50074  -0.48698  -0.48090
 Alpha  occ. eigenvalues --   -0.47413  -0.46206  -0.46101  -0.43703  -0.41692
 Alpha  occ. eigenvalues --   -0.39853  -0.33909
 Alpha virt. eigenvalues --    0.07393   0.11947   0.17284   0.21843   0.24006
 Alpha virt. eigenvalues --    0.25511   0.27149   0.28546   0.29046   0.29677
 Alpha virt. eigenvalues --    0.30740   0.31820   0.32040   0.32743   0.33879

 Mulliken charges:
               1
     1  O   -0.466490
     2  N    0.484462
     3  O   -0.501599
     4  C    0.012944
     5  C    0.192032
     6  N   -0.779150
     7  C    0.060931
     8  H    0.179877
     9  C   -0.301547
    10  C   -0.328332
    11  C   -0.321053
    12  C   -0.306590
    13  C   -0.036460
    14  H    0.189930
    15  N   -0.509023
    16  C    0.114513
    17  H    0.287510
    18  H    0.405951
    19  H    0.191152
    20  H    0.160540
    21  H    0.174846
    22  H    0.149438
    23  H    0.199802
    24  H    0.164545
    25  H    0.186604
    26  H    0.150670
    27  H    0.244496
 Sum of Mulliken charges =  -0.00000

 Dipole moment (field-independent basis, Debye):
    X=              5.4905    Y=              4.8231    Z=              1.1812  Tot=              7.4029
 Quadrupole moment (field-independent basis, Debye-Ang):
   XX=           -106.4341   YY=            -79.1504   ZZ=            -81.6783
   XY=             -1.9039   XZ=              0.0727   YZ=              1.3595

 Normal termination of Gaussian 16 at Fri Jun 30 22:35:41 2023.
