 Gaussian 09, Revision A.01,
 Gaussian 09:  EM64L-G09RevA.01  8-May-2009

 ------------------------------
 #HF/6-31G* Opt=Z-matrix NoSymm
 ------------------------------

 -------------------------------
 water interaction with atom H14
 -------------------------------
 Symbolic Z-matrix:
 Charge =  0 Multiplicity = 1

 SCF Done:  E(RHF) =  -1154.68090112     A.U. after   15 cycles
 SCF Done:  E(RHF) =  -1154.68090248     A.U. after    7 cycles
 SCF Done:  E(RHF) =  -1154.68090413     A.U. after    8 cycles
 SCF Done:  E(RHF) =  -1154.68090447     A.U. after    8 cycles
 Optimization completed.
    -- Stationary point found.

                         Z-Matrix orientation:
 ---------------------------------------------------------------------
 Center     Atomic      Atomic             Coordinates (Angstroms)
 Number     Number       Type             X           Y           Z
 ---------------------------------------------------------------------
      1          9           0       -1.969300    2.053680    0.000070
      2          6           0       -1.222250    0.944230    0.000030
      3          6           0        0.140030    1.057400   -0.000020
      4          6           0        0.927950   -0.123640   -0.000080
      5          6           0        2.414660   -0.018650   -0.000010
      6          9           0        3.007080   -1.234610   -0.000560
      7          9           0        2.858290    0.654480   -1.086020
      8          9           0        2.858270    0.653500    1.086650
      9          6           0        0.306540   -1.341490   -0.000090
     10          7           0       -1.054170   -1.389970   -0.000060
     11          6           0       -1.930500   -0.312100    0.000000
     12         16           0       -3.570980   -0.506610    0.000030
     13          1           0        0.596860    2.043100   -0.000020
     14          1           0        0.831760   -2.288990   -0.000150
     15          1           0       -1.521480   -2.296390   -0.000090
     16         -1           0       -0.042855   -2.773808   -0.000122
     17         -1           0       -0.527673   -1.899193   -0.000066
     18          8           0        1.903278   -4.222015   -0.000272
     19          1           0        2.187285   -4.734410   -0.757255
     20          1           0        2.187364   -4.734462    0.756645
 ---------------------------------------------------------------------

 Alpha  occ. eigenvalues --  -91.89282 -26.35217 -26.34711 -26.34709 -26.32293
 Alpha  occ. eigenvalues --  -20.59871 -15.67327 -11.52781 -11.36586 -11.35812
 Alpha  occ. eigenvalues --  -11.33949 -11.30044 -11.28664  -8.90380  -6.58714
 Alpha  occ. eigenvalues --   -6.58433  -6.58312  -1.72755  -1.63618  -1.63578
 Alpha  occ. eigenvalues --   -1.63240  -1.37953  -1.34071  -1.15684  -1.10644
 Alpha  occ. eigenvalues --   -1.01658  -0.95713  -0.91246  -0.86874  -0.83471
 Alpha  occ. eigenvalues --   -0.82299  -0.82065  -0.75544  -0.74519  -0.74416
 Alpha  occ. eigenvalues --   -0.72386  -0.70994  -0.70237  -0.70197  -0.68910
 Alpha  occ. eigenvalues --   -0.66228  -0.66081  -0.64836  -0.62804  -0.61810
 Alpha  occ. eigenvalues --   -0.61054  -0.58513  -0.57791  -0.53596  -0.51404
 Alpha  occ. eigenvalues --   -0.45205  -0.41927  -0.33004  -0.29779
 Alpha virt. eigenvalues --    0.05770   0.10305   0.17448   0.20335   0.25564
 Alpha virt. eigenvalues --    0.27312   0.27643   0.27885   0.31165   0.33135
 Alpha virt. eigenvalues --    0.35972   0.38091   0.41140   0.42081   0.44059

 Mulliken atomic charges:
              1
     1  F   -0.363494
     2  C    0.396511
     3  C   -0.167627
     4  C   -0.327616
     5  C    1.206621
     6  F   -0.379880
     7  F   -0.377155
     8  F   -0.377159
     9  C    0.141643
    10  N   -0.789524
    11  C    0.188863
    12  S   -0.251912
    13  H    0.275200
    14  H    0.369039
    15  H    0.440290
    16  O   -0.881799
    17  H    0.448999
    18  H    0.448998
 Sum of Mulliken atomic charges =   0.00000

 Dipole moment (field-independent basis, Debye):
    X=              5.1918    Y=             -5.3429    Z=             -0.0006  Tot=              7.4500
 Quadrupole moment (field-independent basis, Debye-Ang):
   XX=           -102.7133   YY=            -51.6863   ZZ=            -79.4728
   XY=             -8.5767   XZ=             -0.0007   YZ=              0.0016

 Normal termination of Gaussian 09 at Fri Sep 24 08:28:55 2021.
