 Gaussian 09, Revision A.01,
 Gaussian 09:  EM64L-G09RevA.01  8-May-2009

 ------------------------------
 #HF/6-31G* Opt=Z-matrix NoSymm
 ------------------------------

 -------------------------------
 water interaction with atom H14
 -------------------------------
 Symbolic Z-matrix:
 Charge =  0 Multiplicity = 1

 SCF Done:  E(RHF) =  -1154.68114138     A.U. after   15 cycles
 SCF Done:  E(RHF) =  -1154.68114457     A.U. after    8 cycles
 SCF Done:  E(RHF) =  -1154.68114870     A.U. after    8 cycles
 SCF Done:  E(RHF) =  -1154.68114972     A.U. after    8 cycles
 Optimization completed.
    -- Stationary point found.

                         Z-Matrix orientation:
 ---------------------------------------------------------------------
 Center     Atomic      Atomic             Coordinates (Angstroms)
 Number     Number       Type             X           Y           Z
 ---------------------------------------------------------------------
      1          9           0       -1.969300    2.053680    0.000070
      2          6           0       -1.222250    0.944230    0.000030
      3          6           0        0.140030    1.057400   -0.000020
      4          6           0        0.927950   -0.123640   -0.000080
      5          6           0        2.414660   -0.018650   -0.000010
      6          9           0        3.007080   -1.234610   -0.000560
      7          9           0        2.858290    0.654480   -1.086020
      8          9           0        2.858270    0.653500    1.086650
      9          6           0        0.306540   -1.341490   -0.000090
     10          7           0       -1.054170   -1.389970   -0.000060
     11          6           0       -1.930500   -0.312100    0.000000
     12         16           0       -3.570980   -0.506610    0.000030
     13          1           0        0.596860    2.043100   -0.000020
     14          1           0        0.831760   -2.288990   -0.000150
     15          1           0       -1.521480   -2.296390   -0.000090
     16         -1           0       -0.042855   -2.773808   -0.000122
     17         -1           0       -0.527673   -1.899193   -0.000066
     18          8           0        1.895400   -4.207802   -0.000272
     19          1           0        1.517406   -5.087207   -0.000282
     20          1           0        2.841486   -4.353240   -0.000326
 ---------------------------------------------------------------------

 Alpha  occ. eigenvalues --  -91.89324 -26.35635 -26.34868 -26.34865 -26.32311
 Alpha  occ. eigenvalues --  -20.59836 -15.67381 -11.52995 -11.36625 -11.35831
 Alpha  occ. eigenvalues --  -11.33981 -11.30085 -11.28703  -8.90422  -6.58755
 Alpha  occ. eigenvalues --   -6.58474  -6.58354  -1.72998  -1.63955  -1.63596
 Alpha  occ. eigenvalues --   -1.63390  -1.37932  -1.34118  -1.15742  -1.10682
 Alpha  occ. eigenvalues --   -1.01776  -0.95811  -0.91357  -0.86939  -0.83594
 Alpha  occ. eigenvalues --   -0.82585  -0.82268  -0.75622  -0.74629  -0.74361
 Alpha  occ. eigenvalues --   -0.72459  -0.71212  -0.70445  -0.70228  -0.68978
 Alpha  occ. eigenvalues --   -0.66451  -0.66362  -0.65052  -0.62856  -0.61848
 Alpha  occ. eigenvalues --   -0.61089  -0.58589  -0.57822  -0.53618  -0.51445
 Alpha  occ. eigenvalues --   -0.45250  -0.41950  -0.33045  -0.29813
 Alpha virt. eigenvalues --    0.05740   0.10296   0.17333   0.20368   0.25488
 Alpha virt. eigenvalues --    0.27235   0.27706   0.27841   0.31114   0.33167
 Alpha virt. eigenvalues --    0.35905   0.38035   0.41083   0.41948   0.43959

 Mulliken atomic charges:
              1
     1  F   -0.363465
     2  C    0.396276
     3  C   -0.167107
     4  C   -0.329519
     5  C    1.207818
     6  F   -0.384949
     7  F   -0.376385
     8  F   -0.376390
     9  C    0.146271
    10  N   -0.790315
    11  C    0.189336
    12  S   -0.251634
    13  H    0.275198
    14  H    0.371414
    15  H    0.438351
    16  O   -0.883201
    17  H    0.445488
    18  H    0.452812
 Sum of Mulliken atomic charges =   0.00000

 Dipole moment (field-independent basis, Debye):
    X=              5.1785    Y=             -5.2903    Z=             -0.0006  Tot=              7.4030
 Quadrupole moment (field-independent basis, Debye-Ang):
   XX=           -100.3420   YY=            -51.1971   ZZ=            -82.6136
   XY=             -7.1487   XZ=             -0.0009   YZ=              0.0016

 Normal termination of Gaussian 09 at Fri Sep 24 08:28:01 2021.
