 Gaussian 16, Revision C.02,
 Gaussian 16:  ES64L-G16RevC.02  7-Dec-2021

 ---------------------------------------------------------
 #MP2/6-31G* SCF=Tight Opt=(ModRedun, MaxCycle=20 ) NoSymm
 ---------------------------------------------------------

 --------
 MolName:
 --------
 Symbolic Z-matrix:
 Charge =  0 Multiplicity = 1

 SCF Done:  E(RHF) =  -661.278144066     A.U. after   16 cycles
 E2 =    -0.2037559459D+01 EUMP2 =    -0.66331570352463D+03
 SCF Done:  E(RHF) =  -661.295086072     A.U. after   15 cycles
 E2 =    -0.2033527705D+01 EUMP2 =    -0.66332861377636D+03
 SCF Done:  E(RHF) =  -661.290430170     A.U. after   17 cycles
 E2 =    -0.2035446924D+01 EUMP2 =    -0.66332587709351D+03
 SCF Done:  E(RHF) =  -661.287717760     A.U. after   16 cycles
 E2 =    -0.2037106295D+01 EUMP2 =    -0.66332482405481D+03
 SCF Done:  E(RHF) =  -661.285164703     A.U. after   16 cycles
 E2 =    -0.2037157930D+01 EUMP2 =    -0.66332232263309D+03
 SCF Done:  E(RHF) =  -661.295096809     A.U. after   11 cycles
 E2 =    -0.2034081402D+01 EUMP2 =    -0.66332917821104D+03
 SCF Done:  E(RHF) =  -661.295263820     A.U. after   14 cycles
 E2 =    -0.2035652797D+01 EUMP2 =    -0.66333091661655D+03
 SCF Done:  E(RHF) =  -661.295617500     A.U. after   13 cycles
 E2 =    -0.2035666220D+01 EUMP2 =    -0.66333128371960D+03
 SCF Done:  E(RHF) =  -661.295980930     A.U. after   12 cycles
 E2 =    -0.2035459920D+01 EUMP2 =    -0.66333144085031D+03
 SCF Done:  E(RHF) =  -661.295917371     A.U. after   12 cycles
 E2 =    -0.2035539209D+01 EUMP2 =    -0.66333145657975D+03
 SCF Done:  E(RHF) =  -661.295942999     A.U. after   11 cycles
 E2 =    -0.2035520505D+01 EUMP2 =    -0.66333146350493D+03
 SCF Done:  E(RHF) =  -661.295957024     A.U. after    9 cycles
 E2 =    -0.2035506728D+01 EUMP2 =    -0.66333146375204D+03
 Optimization completed.
    -- Stationary point found.

                          Input orientation:
 ---------------------------------------------------------------------
 Center     Atomic      Atomic             Coordinates (Angstroms)
 Number     Number       Type             X           Y           Z
 ---------------------------------------------------------------------
      1          8           0       -3.520174   -1.339149   -0.421196
      2          7           0       -3.091869   -0.174541   -0.306460
      3          8           0       -3.820625    0.835425   -0.363784
      4          6           0       -1.657787   -0.005309   -0.110561
      5          6           0       -1.287469    1.251541    0.300225
      6          7           0       -0.052257    1.733152    0.504651
      7          6           0        1.214916    1.022219    0.419924
      8          1           0        1.887263    1.552232    1.109711
      9          6           0        1.851592    1.039242   -0.968392
     10          6           0        3.258058    0.436622   -0.872955
     11          6           0        3.244094   -0.961023   -0.248278
     12          6           0        2.512456   -0.976139    1.095421
     13          6           0        1.089375   -0.431445    0.918985
     14          1           0        0.552318   -0.420482    1.878710
     15          7           0        0.414579   -1.344057    0.000905
     16          6           0       -0.848580   -1.196744   -0.253350
     17          1           0       -2.085971    1.979988    0.411348
     18          1           0       -0.009131    2.693487    0.824621
     19          1           0        1.224284    0.458942   -1.654085
     20          1           0        1.894013    2.067363   -1.348096
     21          1           0        3.714517    0.402507   -1.868846
     22          1           0        3.885488    1.103570   -0.264731
     23          1           0        2.734722   -1.658148   -0.921459
     24          1           0        4.271392   -1.322815   -0.122111
     25          1           0        2.450754   -1.998266    1.482539
     26          1           0        3.053821   -0.373637    1.838000
     27          1           0       -1.320786   -2.010546   -0.803716
 ---------------------------------------------------------------------

 Alpha  occ. eigenvalues --  -20.59298 -20.58984 -15.84714 -15.64207 -15.55873
 Alpha  occ. eigenvalues --  -11.35071 -11.29600 -11.29562 -11.28748 -11.27081
 Alpha  occ. eigenvalues --  -11.23747 -11.23196 -11.22592 -11.22057  -1.57145
 Alpha  occ. eigenvalues --   -1.36751  -1.31001  -1.22822  -1.14698  -1.09803
 Alpha  occ. eigenvalues --   -1.02765  -1.01276  -0.94514  -0.89689  -0.85469
 Alpha  occ. eigenvalues --   -0.82498  -0.78708  -0.77373  -0.75221  -0.72078
 Alpha  occ. eigenvalues --   -0.69848  -0.69294  -0.67736  -0.64718  -0.63917
 Alpha  occ. eigenvalues --   -0.62227  -0.60245  -0.57799  -0.56818  -0.55148
 Alpha  occ. eigenvalues --   -0.54545  -0.50557  -0.50357  -0.48788  -0.48115
 Alpha  occ. eigenvalues --   -0.47409  -0.46151  -0.45894  -0.43695  -0.41968
 Alpha  occ. eigenvalues --   -0.39259  -0.33638
 Alpha virt. eigenvalues --    0.07408   0.11317   0.17182   0.21882   0.24377
 Alpha virt. eigenvalues --    0.26044   0.26769   0.28682   0.29255   0.29411
 Alpha virt. eigenvalues --    0.30786   0.32008   0.32070   0.32835   0.33973

 Mulliken charges:
               1
     1  O   -0.467759
     2  N    0.493742
     3  O   -0.499886
     4  C    0.002253
     5  C    0.182302
     6  N   -0.776699
     7  C    0.056222
     8  H    0.181498
     9  C   -0.302596
    10  C   -0.327360
    11  C   -0.322935
    12  C   -0.305578
    13  C   -0.036560
    14  H    0.189632
    15  N   -0.521045
    16  C    0.124787
    17  H    0.296592
    18  H    0.405387
    19  H    0.190934
    20  H    0.163919
    21  H    0.174891
    22  H    0.149387
    23  H    0.200102
    24  H    0.164736
    25  H    0.187381
    26  H    0.148736
    27  H    0.247915
 Sum of Mulliken charges =  -0.00000

 Dipole moment (field-independent basis, Debye):
    X=              5.3144    Y=              4.6343    Z=              1.9909  Tot=              7.3269
 Quadrupole moment (field-independent basis, Debye-Ang):
   XX=           -105.4386   YY=            -79.6285   ZZ=            -81.4009
   XY=             -0.9658   XZ=             -2.6772   YZ=              3.2316

 Normal termination of Gaussian 16 at Sun Jul  2 10:39:33 2023.
