 Gaussian 16, Revision C.02,
 Gaussian 16:  ES64L-G16RevC.02  7-Dec-2021

 ---------------------------------------------------------
 #MP2/6-31G* SCF=Tight Opt=(ModRedun, MaxCycle=20 ) NoSymm
 ---------------------------------------------------------

 --------
 MolName:
 --------
 Symbolic Z-matrix:
 Charge =  0 Multiplicity = 1

 SCF Done:  E(RHF) =  -661.281411201     A.U. after   16 cycles
 E2 =    -0.2037201138D+01 EUMP2 =    -0.66331861233925D+03
 SCF Done:  E(RHF) =  -661.298256458     A.U. after   15 cycles
 E2 =    -0.2032840948D+01 EUMP2 =    -0.66333109740622D+03
 SCF Done:  E(RHF) =  -661.295843416     A.U. after   15 cycles
 E2 =    -0.2034191043D+01 EUMP2 =    -0.66333003445866D+03
 SCF Done:  E(RHF) =  -661.289778259     A.U. after   16 cycles
 E2 =    -0.2036446139D+01 EUMP2 =    -0.66332622439825D+03
 SCF Done:  E(RHF) =  -661.288299468     A.U. after   15 cycles
 E2 =    -0.2036517706D+01 EUMP2 =    -0.66332481717428D+03
 SCF Done:  E(RHF) =  -661.298357117     A.U. after   12 cycles
 E2 =    -0.2033455366D+01 EUMP2 =    -0.66333181248294D+03
 SCF Done:  E(RHF) =  -661.298567207     A.U. after   15 cycles
 E2 =    -0.2034792824D+01 EUMP2 =    -0.66333336003060D+03
 SCF Done:  E(RHF) =  -661.298896595     A.U. after   13 cycles
 E2 =    -0.2034799795D+01 EUMP2 =    -0.66333369639010D+03
 SCF Done:  E(RHF) =  -661.299241356     A.U. after   12 cycles
 E2 =    -0.2034567477D+01 EUMP2 =    -0.66333380883361D+03
 SCF Done:  E(RHF) =  -661.299184638     A.U. after   12 cycles
 E2 =    -0.2034639849D+01 EUMP2 =    -0.66333382448671D+03
 SCF Done:  E(RHF) =  -661.299197427     A.U. after   10 cycles
 E2 =    -0.2034630305D+01 EUMP2 =    -0.66333382773167D+03
 SCF Done:  E(RHF) =  -661.299205337     A.U. after    9 cycles
 E2 =    -0.2034622589D+01 EUMP2 =    -0.66333382792616D+03
 Optimization completed.
    -- Stationary point found.

                          Input orientation:
 ---------------------------------------------------------------------
 Center     Atomic      Atomic             Coordinates (Angstroms)
 Number     Number       Type             X           Y           Z
 ---------------------------------------------------------------------
      1          8           0       -3.514677   -1.368140   -0.392602
      2          7           0       -3.111537   -0.202698   -0.212154
      3          8           0       -3.868383    0.786046   -0.155644
      4          6           0       -1.676152   -0.013489   -0.062680
      5          6           0       -1.293718    1.256122    0.288334
      6          7           0       -0.053409    1.742738    0.445565
      7          6           0        1.211214    1.023995    0.389478
      8          1           0        1.871847    1.553086    1.092023
      9          6           0        1.881786    1.037484   -0.982951
     10          6           0        3.284268    0.432056   -0.852951
     11          6           0        3.252433   -0.964745   -0.226962
     12          6           0        2.488753   -0.976986    1.098906
     13          6           0        1.072364   -0.427057    0.891925
     14          1           0        0.515380   -0.410081    1.841235
     15          7           0        0.411160   -1.330013   -0.044485
     16          6           0       -0.844015   -1.169870   -0.322111
     17          1           0       -2.090263    1.983656    0.417688
     18          1           0       -0.002751    2.715718    0.723435
     19          1           0        1.270567    0.458808   -1.684052
     20          1           0        1.936497    2.065416   -1.362005
     21          1           0        3.764707    0.395562   -1.837394
     22          1           0        3.898354    1.098400   -0.230561
     23          1           0        2.758402   -1.661471   -0.911602
     24          1           0        4.275756   -1.327973   -0.075095
     25          1           0        2.414586   -1.998887    1.484775
     26          1           0        3.014687   -0.376849    1.854324
     27          1           0       -1.307859   -1.956825   -0.916430
 ---------------------------------------------------------------------

 Alpha  occ. eigenvalues --  -20.59277 -20.58952 -15.84738 -15.64160 -15.55990
 Alpha  occ. eigenvalues --  -11.35020 -11.29585 -11.29576 -11.28706 -11.27110
 Alpha  occ. eigenvalues --  -11.23735 -11.23200 -11.22642 -11.22072  -1.57148
 Alpha  occ. eigenvalues --   -1.36743  -1.30983  -1.22943  -1.14704  -1.09814
 Alpha  occ. eigenvalues --   -1.02787  -1.01299  -0.94512  -0.89702  -0.85518
 Alpha  occ. eigenvalues --   -0.82482  -0.78668  -0.77403  -0.75221  -0.72051
 Alpha  occ. eigenvalues --   -0.69825  -0.69373  -0.67785  -0.64814  -0.63852
 Alpha  occ. eigenvalues --   -0.62289  -0.60265  -0.57752  -0.56912  -0.55109
 Alpha  occ. eigenvalues --   -0.54565  -0.50658  -0.50248  -0.48723  -0.48119
 Alpha  occ. eigenvalues --   -0.47395  -0.46136  -0.45983  -0.43699  -0.41824
 Alpha  occ. eigenvalues --   -0.39553  -0.33746
 Alpha virt. eigenvalues --    0.07429   0.11575   0.17238   0.21875   0.24281
 Alpha virt. eigenvalues --    0.26029   0.26972   0.28768   0.29151   0.29565
 Alpha virt. eigenvalues --    0.30667   0.31882   0.32028   0.32804   0.33977

 Mulliken charges:
               1
     1  O   -0.467180
     2  N    0.493592
     3  O   -0.503344
     4  C   -0.000168
     5  C    0.185729
     6  N   -0.779411
     7  C    0.058628
     8  H    0.180674
     9  C   -0.301882
    10  C   -0.327662
    11  C   -0.322207
    12  C   -0.306106
    13  C   -0.036272
    14  H    0.189464
    15  N   -0.517501
    16  C    0.124892
    17  H    0.296651
    18  H    0.405123
    19  H    0.190266
    20  H    0.162706
    21  H    0.174748
    22  H    0.149360
    23  H    0.200048
    24  H    0.164621
    25  H    0.187208
    26  H    0.149542
    27  H    0.248480
 Sum of Mulliken charges =  -0.00000

 Dipole moment (field-independent basis, Debye):
    X=              5.3752    Y=              4.7070    Z=              1.6391  Tot=              7.3305
 Quadrupole moment (field-independent basis, Debye-Ang):
   XX=           -105.8814   YY=            -79.4445   ZZ=            -81.3751
   XY=             -1.3290   XZ=             -1.4151   YZ=              2.5732

 Normal termination of Gaussian 16 at Sun Jul  2 10:12:41 2023.
