 Gaussian 16, Revision C.02,
 Gaussian 16:  ES64L-G16RevC.02  7-Dec-2021

 ---------------------------------------------------------
 #MP2/6-31G* SCF=Tight Opt=(ModRedun, MaxCycle=20 ) NoSymm
 ---------------------------------------------------------

 --------
 MolName:
 --------
 Symbolic Z-matrix:
 Charge =  0 Multiplicity = 1

 SCF Done:  E(RHF) =  -661.281173694     A.U. after   16 cycles
 E2 =    -0.2037254328D+01 EUMP2 =    -0.66331842802238D+03
 SCF Done:  E(RHF) =  -661.298389982     A.U. after   15 cycles
 E2 =    -0.2032668443D+01 EUMP2 =    -0.66333105842456D+03
 SCF Done:  E(RHF) =  -661.299172845     A.U. after   15 cycles
 E2 =    -0.2033446773D+01 EUMP2 =    -0.66333261961754D+03
 SCF Done:  E(RHF) =  -661.288978990     A.U. after   17 cycles
 E2 =    -0.2036569945D+01 EUMP2 =    -0.66332554893549D+03
 SCF Done:  E(RHF) =  -661.299308926     A.U. after   14 cycles
 E2 =    -0.2035009138D+01 EUMP2 =    -0.66333431806445D+03
 SCF Done:  E(RHF) =  -661.299939373     A.U. after   12 cycles
 E2 =    -0.2034619129D+01 EUMP2 =    -0.66333455850159D+03
 SCF Done:  E(RHF) =  -661.300452951     A.U. after   12 cycles
 E2 =    -0.2034179374D+01 EUMP2 =    -0.66333463232449D+03
 SCF Done:  E(RHF) =  -661.300467937     A.U. after   11 cycles
 E2 =    -0.2034179394D+01 EUMP2 =    -0.66333464733041D+03
 SCF Done:  E(RHF) =  -661.300392573     A.U. after   10 cycles
 E2 =    -0.2034256733D+01 EUMP2 =    -0.66333464930683D+03
 SCF Done:  E(RHF) =  -661.300360002     A.U. after    9 cycles
 E2 =    -0.2034289403D+01 EUMP2 =    -0.66333464940433D+03
 Optimization completed.
    -- Stationary point found.

                          Input orientation:
 ---------------------------------------------------------------------
 Center     Atomic      Atomic             Coordinates (Angstroms)
 Number     Number       Type             X           Y           Z
 ---------------------------------------------------------------------
      1          8           0       -3.506772   -1.390298   -0.371342
      2          7           0       -3.121089   -0.232221   -0.118553
      3          8           0       -3.895375    0.728773    0.055717
      4          6           0       -1.686648   -0.023789   -0.009636
      5          6           0       -1.301405    1.260658    0.275439
      6          7           0       -0.057164    1.750166    0.386502
      7          6           0        1.205635    1.023969    0.359382
      8          1           0        1.853415    1.552804    1.074844
      9          6           0        1.909120    1.035147   -0.996452
     10          6           0        3.307498    0.428469   -0.832455
     11          6           0        3.259490   -0.967678   -0.205983
     12          6           0        2.464512   -0.978378    1.101492
     13          6           0        1.054780   -0.424667    0.865096
     14          1           0        0.478253   -0.403390    1.803526
     15          7           0        0.408210   -1.317946   -0.091179
     16          6           0       -0.839144   -1.138105   -0.386514
     17          1           0       -2.096167    1.987569    0.419033
     18          1           0        0.001743    2.735323    0.615704
     19          1           0        1.314846    0.457748   -1.712662
     20          1           0        1.975106    2.063103   -1.374115
     21          1           0        3.811461    0.390440   -1.804990
     22          1           0        3.907296    1.094718   -0.196135
     23          1           0        2.781790   -1.664396   -0.901891
     24          1           0        4.278654   -1.331222   -0.028883
     25          1           0        2.379062   -2.000337    1.485261
     26          1           0        2.974490   -0.380598    1.869572
     27          1           0       -1.300590   -1.892861   -1.022759
 ---------------------------------------------------------------------

 Alpha  occ. eigenvalues --  -20.59236 -20.58904 -15.84722 -15.64136 -15.56111
 Alpha  occ. eigenvalues --  -11.35018 -11.29622 -11.29559 -11.28627 -11.27134
 Alpha  occ. eigenvalues --  -11.23729 -11.23208 -11.22692 -11.22089  -1.57116
 Alpha  occ. eigenvalues --   -1.36709  -1.30978  -1.23064  -1.14703  -1.09819
 Alpha  occ. eigenvalues --   -1.02805  -1.01308  -0.94482  -0.89684  -0.85566
 Alpha  occ. eigenvalues --   -0.82448  -0.78609  -0.77411  -0.75203  -0.72020
 Alpha  occ. eigenvalues --   -0.69771  -0.69438  -0.67820  -0.64892  -0.63777
 Alpha  occ. eigenvalues --   -0.62368  -0.60281  -0.57700  -0.57001  -0.55077
 Alpha  occ. eigenvalues --   -0.54582  -0.50762  -0.50108  -0.48656  -0.48102
 Alpha  occ. eigenvalues --   -0.47372  -0.46146  -0.46044  -0.43678  -0.41695
 Alpha  occ. eigenvalues --   -0.39847  -0.33829
 Alpha virt. eigenvalues --    0.07464   0.11799   0.17307   0.21848   0.24113
 Alpha virt. eigenvalues --    0.25664   0.27134   0.28694   0.29044   0.29635
 Alpha virt. eigenvalues --    0.30683   0.31798   0.32036   0.32767   0.33950

 Mulliken charges:
               1
     1  O   -0.467244
     2  N    0.491310
     3  O   -0.504059
     4  C    0.000460
     5  C    0.188874
     6  N   -0.780285
     7  C    0.060263
     8  H    0.180076
     9  C   -0.301431
    10  C   -0.327939
    11  C   -0.321488
    12  C   -0.306658
    13  C   -0.037182
    14  H    0.189955
    15  N   -0.511221
    16  C    0.120015
    17  H    0.295304
    18  H    0.404873
    19  H    0.190187
    20  H    0.161380
    21  H    0.174648
    22  H    0.149360
    23  H    0.199935
    24  H    0.164539
    25  H    0.187062
    26  H    0.150349
    27  H    0.248916
 Sum of Mulliken charges =  -0.00000

 Dipole moment (field-independent basis, Debye):
    X=              5.4158    Y=              4.7959    Z=              1.2818  Tot=              7.3467
 Quadrupole moment (field-independent basis, Debye-Ang):
   XX=           -106.1393   YY=            -79.2250   ZZ=            -81.5013
   XY=             -1.7655   XZ=             -0.1334   YZ=              1.8557

 Normal termination of Gaussian 16 at Sun Jul  2 09:04:48 2023.
