 Gaussian 16, Revision C.02,
 Gaussian 16:  ES64L-G16RevC.02  7-Dec-2021

 ---------------------------------------------------------
 #MP2/6-31G* SCF=Tight Opt=(ModRedun, MaxCycle=20 ) NoSymm
 ---------------------------------------------------------

 --------
 MolName:
 --------
 Symbolic Z-matrix:
 Charge =  0 Multiplicity = 1

 SCF Done:  E(RHF) =  -661.277509809     A.U. after   16 cycles
 E2 =    -0.2037840641D+01 EUMP2 =    -0.66331535045001D+03
 SCF Done:  E(RHF) =  -661.295414856     A.U. after   15 cycles
 E2 =    -0.2033118072D+01 EUMP2 =    -0.66332853292830D+03
 SCF Done:  E(RHF) =  -661.298456904     A.U. after   14 cycles
 E2 =    -0.2033560448D+01 EUMP2 =    -0.66333201735194D+03
 SCF Done:  E(RHF) =  -661.298662873     A.U. after   14 cycles
 E2 =    -0.2034755801D+01 EUMP2 =    -0.66333341867377D+03
 SCF Done:  E(RHF) =  -661.294718561     A.U. after   15 cycles
 E2 =    -0.2035831344D+01 EUMP2 =    -0.66333054990511D+03
 SCF Done:  E(RHF) =  -661.298656077     A.U. after   13 cycles
 E2 =    -0.2034931756D+01 EUMP2 =    -0.66333358783370D+03
 SCF Done:  E(RHF) =  -661.299197300     A.U. after   12 cycles
 E2 =    -0.2034504803D+01 EUMP2 =    -0.66333370210305D+03
 SCF Done:  E(RHF) =  -661.299242764     A.U. after   11 cycles
 E2 =    -0.2034469264D+01 EUMP2 =    -0.66333371202895D+03
 SCF Done:  E(RHF) =  -661.299205661     A.U. after   11 cycles
 E2 =    -0.2034508193D+01 EUMP2 =    -0.66333371385388D+03
 Optimization completed.
    -- Stationary point found.

                          Input orientation:
 ---------------------------------------------------------------------
 Center     Atomic      Atomic             Coordinates (Angstroms)
 Number     Number       Type             X           Y           Z
 ---------------------------------------------------------------------
      1          8           0       -3.494961   -1.407823   -0.343957
      2          7           0       -3.119432   -0.263728   -0.021290
      3          8           0       -3.900488    0.662385    0.271623
      4          6           0       -1.687913   -0.033010    0.040966
      5          6           0       -1.311072    1.266921    0.258870
      6          7           0       -0.063464    1.756959    0.322893
      7          6           0        1.197799    1.022166    0.328545
      8          1           0        1.829803    1.550155    1.059451
      9          6           0        1.937216    1.033116   -1.007762
     10          6           0        3.330213    0.425190   -0.806679
     11          6           0        3.264592   -0.971182   -0.182127
     12          6           0        2.435111   -0.982289    1.103883
     13          6           0        1.033332   -0.424956    0.835385
     14          1           0        0.434565   -0.401872    1.760474
     15          7           0        0.404999   -1.306484   -0.145423
     16          6           0       -0.833454   -1.097716   -0.455554
     17          1           0       -2.104448    1.992833    0.415993
     18          1           0        0.004878    2.752308    0.499857
     19          1           0        1.362571    0.458070   -1.741238
     20          1           0        2.015519    2.061706   -1.381854
     21          1           0        3.859995    0.387000   -1.765341
     22          1           0        3.913460    1.090590   -0.154300
     23          1           0        2.805734   -1.667101   -0.891174
     24          1           0        4.278480   -1.335069    0.022444
     25          1           0        2.337723   -2.004823    1.483633
     26          1           0        2.926457   -0.387779    1.886442
     27          1           0       -1.297206   -1.811597   -1.135771
 ---------------------------------------------------------------------

 Alpha  occ. eigenvalues --  -20.59173 -20.58838 -15.84653 -15.64118 -15.56259
 Alpha  occ. eigenvalues --  -11.35061 -11.29677 -11.29553 -11.28499 -11.27155
 Alpha  occ. eigenvalues --  -11.23727 -11.23219 -11.22740 -11.22111  -1.57049
 Alpha  occ. eigenvalues --   -1.36651  -1.30969  -1.23204  -1.14693  -1.09817
 Alpha  occ. eigenvalues --   -1.02819  -1.01298  -0.94418  -0.89630  -0.85608
 Alpha  occ. eigenvalues --   -0.82397  -0.78520  -0.77410  -0.75150  -0.71973
 Alpha  occ. eigenvalues --   -0.69697  -0.69475  -0.67838  -0.64960  -0.63702
 Alpha  occ. eigenvalues --   -0.62456  -0.60309  -0.57635  -0.57083  -0.55052
 Alpha  occ. eigenvalues --   -0.54600  -0.50844  -0.49958  -0.48585  -0.48068
 Alpha  occ. eigenvalues --   -0.47337  -0.46183  -0.46076  -0.43624  -0.41591
 Alpha  occ. eigenvalues --   -0.40137  -0.33899
 Alpha virt. eigenvalues --    0.07524   0.11990   0.17401   0.21770   0.23741
 Alpha virt. eigenvalues --    0.25168   0.27197   0.28421   0.29030   0.29586
 Alpha virt. eigenvalues --    0.30771   0.31812   0.32066   0.32719   0.33899

 Mulliken charges:
               1
     1  O   -0.468275
     2  N    0.487500
     3  O   -0.502175
     4  C    0.003552
     5  C    0.191842
     6  N   -0.779578
     7  C    0.061776
     8  H    0.179748
     9  C   -0.301183
    10  C   -0.328208
    11  C   -0.320795
    12  C   -0.307112
    13  C   -0.040418
    14  H    0.191447
    15  N   -0.502039
    16  C    0.110999
    17  H    0.293008
    18  H    0.404445
    19  H    0.190534
    20  H    0.160015
    21  H    0.174580
    22  H    0.149412
    23  H    0.199772
    24  H    0.164493
    25  H    0.186937
    26  H    0.151168
    27  H    0.248552
 Sum of Mulliken charges =  -0.00000

 Dipole moment (field-independent basis, Debye):
    X=              5.4348    Y=              4.8992    Z=              0.9104  Tot=              7.3735
 Quadrupole moment (field-independent basis, Debye-Ang):
   XX=           -106.1900   YY=            -79.0011   ZZ=            -81.7511
   XY=             -2.3031   XZ=              1.2208   YZ=              1.1271

 Normal termination of Gaussian 16 at Sun Jul  2 09:24:47 2023.
