 Gaussian 16, Revision C.02,
 Gaussian 16:  ES64L-G16RevC.02  7-Dec-2021

 ---------------------------------------------------------
 #MP2/6-31G* SCF=Tight Opt=(ModRedun, MaxCycle=20 ) NoSymm
 ---------------------------------------------------------

 --------
 MolName:
 --------
 Symbolic Z-matrix:
 Charge =  0 Multiplicity = 1

 SCF Done:  E(RHF) =  -661.271558513     A.U. after   16 cycles
 E2 =    -0.2038971288D+01 EUMP2 =    -0.66331052980175D+03
 SCF Done:  E(RHF) =  -661.290068511     A.U. after   15 cycles
 E2 =    -0.2034154149D+01 EUMP2 =    -0.66332422265969D+03
 SCF Done:  E(RHF) =  -661.292735376     A.U. after   15 cycles
 E2 =    -0.2034656174D+01 EUMP2 =    -0.66332739154969D+03
 SCF Done:  E(RHF) =  -661.285682010     A.U. after   17 cycles
 E2 =    -0.2036962303D+01 EUMP2 =    -0.66332264431257D+03
 SCF Done:  E(RHF) =  -661.293906954     A.U. after   14 cycles
 E2 =    -0.2036302481D+01 EUMP2 =    -0.66333020943509D+03
 SCF Done:  E(RHF) =  -661.294770218     A.U. after   13 cycles
 E2 =    -0.2035707082D+01 EUMP2 =    -0.66333047729978D+03
 SCF Done:  E(RHF) =  -661.295290103     A.U. after   12 cycles
 E2 =    -0.2035261458D+01 EUMP2 =    -0.66333055156179D+03
 SCF Done:  E(RHF) =  -661.295280570     A.U. after   11 cycles
 E2 =    -0.2035281214D+01 EUMP2 =    -0.66333056178371D+03
 SCF Done:  E(RHF) =  -661.295233731     A.U. after   10 cycles
 E2 =    -0.2035329984D+01 EUMP2 =    -0.66333056371507D+03
 SCF Done:  E(RHF) =  -661.295184423     A.U. after    9 cycles
 E2 =    -0.2035379525D+01 EUMP2 =    -0.66333056394757D+03
 Optimization completed.
    -- Stationary point found.

                          Input orientation:
 ---------------------------------------------------------------------
 Center     Atomic      Atomic             Coordinates (Angstroms)
 Number     Number       Type             X           Y           Z
 ---------------------------------------------------------------------
      1          8           0       -3.474356   -1.427889   -0.297730
      2          7           0       -3.103858   -0.301054    0.086787
      3          8           0       -3.882783    0.583522    0.493219
      4          6           0       -1.678724   -0.040157    0.091185
      5          6           0       -1.323403    1.275948    0.239268
      6          7           0       -0.072352    1.763897    0.252329
      7          6           0        1.187505    1.018975    0.294696
      8          1           0        1.801055    1.546204    1.042527
      9          6           0        1.965037    1.030359   -1.019264
     10          6           0        3.351462    0.421881   -0.778249
     11          6           0        3.267740   -0.974817   -0.156572
     12          6           0        2.401515   -0.987238    1.105186
     13          6           0        1.008526   -0.427118    0.802459
     14          1           0        0.385583   -0.404377    1.711709
     15          7           0        0.401497   -1.295691   -0.206950
     16          6           0       -0.826820   -1.047599   -0.526488
     17          1           0       -2.115571    2.000808    0.409031
     18          1           0        0.007046    2.767018    0.372782
     19          1           0        1.412424    0.457874   -1.771001
     20          1           0        2.056001    2.059804   -1.388653
     21          1           0        3.908979    0.383997   -1.721054
     22          1           0        3.915771    1.086619   -0.108744
     23          1           0        2.830409   -1.670142   -0.879511
     24          1           0        4.275377   -1.338338    0.077496
     25          1           0        2.292143   -2.010630    1.479821
     26          1           0        2.872143   -0.396322    1.903043
     27          1           0       -1.299316   -1.712515   -1.249321
 ---------------------------------------------------------------------

 Alpha  occ. eigenvalues --  -20.59076 -20.58756 -15.84530 -15.64096 -15.56452
 Alpha  occ. eigenvalues --  -11.35155 -11.29750 -11.29556 -11.28326 -11.27174
 Alpha  occ. eigenvalues --  -11.23733 -11.23235 -11.22790 -11.22138  -1.56926
 Alpha  occ. eigenvalues --   -1.36547  -1.30938  -1.23355  -1.14666  -1.09805
 Alpha  occ. eigenvalues --   -1.02825  -1.01266  -0.94327  -0.89530  -0.85642
 Alpha  occ. eigenvalues --   -0.82334  -0.78383  -0.77407  -0.75043  -0.71902
 Alpha  occ. eigenvalues --   -0.69603  -0.69458  -0.67838  -0.65005  -0.63631
 Alpha  occ. eigenvalues --   -0.62542  -0.60350  -0.57553  -0.57144  -0.55028
 Alpha  occ. eigenvalues --   -0.54620  -0.50892  -0.49798  -0.48511  -0.48018
 Alpha  occ. eigenvalues --   -0.47279  -0.46227  -0.46089  -0.43532  -0.41549
 Alpha  occ. eigenvalues --   -0.40381  -0.33961
 Alpha virt. eigenvalues --    0.07584   0.12147   0.17519   0.21544   0.23056
 Alpha virt. eigenvalues --    0.24807   0.27189   0.28081   0.29048   0.29469
 Alpha virt. eigenvalues --    0.30779   0.31882   0.32181   0.32661   0.33819

 Mulliken charges:
               1
     1  O   -0.470192
     2  N    0.482808
     3  O   -0.499283
     4  C    0.007030
     5  C    0.195742
     6  N   -0.778396
     7  C    0.063426
     8  H    0.179687
     9  C   -0.301107
    10  C   -0.328425
    11  C   -0.320092
    12  C   -0.307450
    13  C   -0.046235
    14  H    0.194562
    15  N   -0.489772
    16  C    0.099568
    17  H    0.290125
    18  H    0.403724
    19  H    0.191237
    20  H    0.158665
    21  H    0.174559
    22  H    0.149514
    23  H    0.199496
    24  H    0.164472
    25  H    0.186823
    26  H    0.152034
    27  H    0.247482
 Sum of Mulliken charges =  -0.00000

 Dipole moment (field-independent basis, Debye):
    X=              5.4278    Y=              5.0267    Z=              0.5195  Tot=              7.4162
 Quadrupole moment (field-independent basis, Debye-Ang):
   XX=           -105.9809   YY=            -78.8127   ZZ=            -82.1198
   XY=             -2.9811   XZ=              2.6540   YZ=              0.4120

 Normal termination of Gaussian 16 at Sun Jul  2 09:46:15 2023.
