 Gaussian 16, Revision C.02,
 Gaussian 16:  ES64L-G16RevC.02  7-Dec-2021

 ---------------------------------------------------------
 #MP2/6-31G* SCF=Tight Opt=(ModRedun, MaxCycle=20 ) NoSymm
 ---------------------------------------------------------

 --------
 MolName:
 --------
 Symbolic Z-matrix:
 Charge =  0 Multiplicity = 1

 SCF Done:  E(RHF) =  -661.278288895     A.U. after   16 cycles
 E2 =    -0.2037543846D+01 EUMP2 =    -0.66331583274118D+03
 SCF Done:  E(RHF) =  -661.295221922     A.U. after   15 cycles
 E2 =    -0.2033500759D+01 EUMP2 =    -0.66332872268125D+03
 SCF Done:  E(RHF) =  -661.290606142     A.U. after   17 cycles
 E2 =    -0.2035405078D+01 EUMP2 =    -0.66332601121958D+03
 SCF Done:  E(RHF) =  -661.287805251     A.U. after   16 cycles
 E2 =    -0.2037079722D+01 EUMP2 =    -0.66332488497341D+03
 SCF Done:  E(RHF) =  -661.285273389     A.U. after   16 cycles
 E2 =    -0.2037135317D+01 EUMP2 =    -0.66332240870522D+03
 SCF Done:  E(RHF) =  -661.295233239     A.U. after   11 cycles
 E2 =    -0.2034054437D+01 EUMP2 =    -0.66332928767583D+03
 SCF Done:  E(RHF) =  -661.295394520     A.U. after   14 cycles
 E2 =    -0.2035618985D+01 EUMP2 =    -0.66333101350524D+03
 SCF Done:  E(RHF) =  -661.295746937     A.U. after   13 cycles
 E2 =    -0.2035632659D+01 EUMP2 =    -0.66333137959582D+03
 SCF Done:  E(RHF) =  -661.296110461     A.U. after   12 cycles
 E2 =    -0.2035425542D+01 EUMP2 =    -0.66333153600295D+03
 SCF Done:  E(RHF) =  -661.296046174     A.U. after   12 cycles
 E2 =    -0.2035505379D+01 EUMP2 =    -0.66333155155288D+03
 SCF Done:  E(RHF) =  -661.296071630     A.U. after   10 cycles
 E2 =    -0.2035486575D+01 EUMP2 =    -0.66333155820533D+03
 SCF Done:  E(RHF) =  -661.296085610     A.U. after    9 cycles
 E2 =    -0.2035472818D+01 EUMP2 =    -0.66333155842730D+03
 Optimization completed.
    -- Stationary point found.

                          Input orientation:
 ---------------------------------------------------------------------
 Center     Atomic      Atomic             Coordinates (Angstroms)
 Number     Number       Type             X           Y           Z
 ---------------------------------------------------------------------
      1          8           0       -3.520023   -1.342161   -0.413016
      2          7           0       -3.092824   -0.177102   -0.298669
      3          8           0       -3.822969    0.831995   -0.353291
      4          6           0       -1.658489   -0.006503   -0.106240
      5          6           0       -1.287600    1.251426    0.300523
      6          7           0       -0.052136    1.733920    0.501350
      7          6           0        1.215076    1.023014    0.417129
      8          1           0        1.887698    1.554239    1.105740
      9          6           0        1.851225    1.038009   -0.971459
     10          6           0        3.257868    0.435865   -0.875635
     11          6           0        3.244479   -0.960810   -0.248778
     12          6           0        2.513373   -0.974019    1.095234
     13          6           0        1.090127   -0.429852    0.918634
     14          1           0        0.553534   -0.417400    1.878635
     15          7           0        0.414978   -1.343765    0.002156
     16          6           0       -0.848266   -1.196937   -0.251701
     17          1           0       -2.086150    1.979751    0.412081
     18          1           0       -0.008732    2.695131    0.818637
     19          1           0        1.223799    0.456529   -1.656035
     20          1           0        1.893284    2.065558   -1.352760
     21          1           0        3.713954    0.400305   -1.871646
     22          1           0        3.885381    1.103904   -0.268691
     23          1           0        2.735021   -1.659093   -0.920683
     24          1           0        4.271916   -1.322148   -0.122433
     25          1           0        2.452029   -1.995570    1.483937
     26          1           0        3.054927   -0.370303    1.836687
     27          1           0       -1.320492   -2.010973   -0.801687
 ---------------------------------------------------------------------

 Alpha  occ. eigenvalues --  -20.59298 -20.58984 -15.84715 -15.64205 -15.55877
 Alpha  occ. eigenvalues --  -11.35069 -11.29599 -11.29563 -11.28747 -11.27082
 Alpha  occ. eigenvalues --  -11.23747 -11.23196 -11.22594 -11.22058  -1.57146
 Alpha  occ. eigenvalues --   -1.36751  -1.31000  -1.22826  -1.14698  -1.09804
 Alpha  occ. eigenvalues --   -1.02766  -1.01277  -0.94514  -0.89690  -0.85470
 Alpha  occ. eigenvalues --   -0.82498  -0.78707  -0.77374  -0.75221  -0.72077
 Alpha  occ. eigenvalues --   -0.69848  -0.69297  -0.67738  -0.64721  -0.63915
 Alpha  occ. eigenvalues --   -0.62229  -0.60245  -0.57797  -0.56821  -0.55146
 Alpha  occ. eigenvalues --   -0.54545  -0.50559  -0.50355  -0.48786  -0.48115
 Alpha  occ. eigenvalues --   -0.47409  -0.46151  -0.45897  -0.43695  -0.41963
 Alpha  occ. eigenvalues --   -0.39268  -0.33642
 Alpha virt. eigenvalues --    0.07409   0.11325   0.17184   0.21882   0.24375
 Alpha virt. eigenvalues --    0.26052   0.26772   0.28685   0.29253   0.29415
 Alpha virt. eigenvalues --    0.30781   0.32007   0.32064   0.32834   0.33973

 Mulliken charges:
               1
     1  O   -0.467736
     2  N    0.493765
     3  O   -0.500014
     4  C    0.002145
     5  C    0.182405
     6  N   -0.776803
     7  C    0.056311
     8  H    0.181471
     9  C   -0.302570
    10  C   -0.327369
    11  C   -0.322912
    12  C   -0.305592
    13  C   -0.036545
    14  H    0.189619
    15  N   -0.520983
    16  C    0.124859
    17  H    0.296615
    18  H    0.405379
    19  H    0.190904
    20  H    0.163884
    21  H    0.174886
    22  H    0.149386
    23  H    0.200102
    24  H    0.164732
    25  H    0.187375
    26  H    0.148761
    27  H    0.247928
 Sum of Mulliken charges =  -0.00000

 Dipole moment (field-independent basis, Debye):
    X=              5.3174    Y=              4.6409    Z=              1.9671  Tot=              7.3268
 Quadrupole moment (field-independent basis, Debye-Ang):
   XX=           -105.4594   YY=            -79.6172   ZZ=            -81.3972
   XY=             -0.9854   XZ=             -2.6049   YZ=              3.2147

 Normal termination of Gaussian 16 at Sat Jul  1 02:06:26 2023.
