 Gaussian 09, Revision A.01,
 Gaussian 09:  EM64L-G09RevA.01  8-May-2009

 ------------------------------
 #HF/6-31G* Opt=Z-matrix NoSymm
 ------------------------------

 ------------------------------
 water interaction with atom F1
 ------------------------------
 Symbolic Z-matrix:
 Charge =  0 Multiplicity = 1

 SCF Done:  E(RHF) =  -1154.67450854     A.U. after   15 cycles
 SCF Done:  E(RHF) =  -1154.67453400     A.U. after    8 cycles
 SCF Done:  E(RHF) =  -1154.67457456     A.U. after    9 cycles
 SCF Done:  E(RHF) =  -1154.67462039     A.U. after   10 cycles
 SCF Done:  E(RHF) =  -1154.67462975     A.U. after   10 cycles
 Optimization completed.
    -- Stationary point found.

                         Z-Matrix orientation:
 ---------------------------------------------------------------------
 Center     Atomic      Atomic             Coordinates (Angstroms)
 Number     Number       Type             X           Y           Z
 ---------------------------------------------------------------------
      1          9           0       -1.969300    2.053680    0.000070
      2          6           0       -1.222250    0.944230    0.000030
      3          6           0        0.140030    1.057400   -0.000020
      4          6           0        0.927950   -0.123640   -0.000080
      5          6           0        2.414660   -0.018650   -0.000010
      6          9           0        3.007080   -1.234610   -0.000560
      7          9           0        2.858290    0.654480   -1.086020
      8          9           0        2.858270    0.653500    1.086650
      9          6           0        0.306540   -1.341490   -0.000090
     10          7           0       -1.054170   -1.389970   -0.000060
     11          6           0       -1.930500   -0.312100    0.000000
     12         16           0       -3.570980   -0.506610    0.000030
     13          1           0        0.596860    2.043100   -0.000020
     14          1           0        0.831760   -2.288990   -0.000150
     15          1           0       -1.521480   -2.296390   -0.000090
     16         -1           0       -1.139818    2.612213    0.000045
     17         -1           0       -0.581285    1.782731    0.000015
     18          1           0       -3.286043    4.009185    0.000141
     19         -1           0       -2.456561    4.567719    0.000115
     20          8           0       -3.820671    4.803166    0.000169
     21          1           0       -3.186091    5.519783    0.000153
 ---------------------------------------------------------------------

 Alpha  occ. eigenvalues --  -91.90834 -26.37075 -26.36149 -26.36147 -26.34830
 Alpha  occ. eigenvalues --  -20.54378 -15.69077 -11.54455 -11.38260 -11.37844
 Alpha  occ. eigenvalues --  -11.36564 -11.31856 -11.30695  -8.91920  -6.60246
 Alpha  occ. eigenvalues --   -6.59970  -6.59843  -1.74328  -1.66087  -1.65327
 Alpha  occ. eigenvalues --   -1.64647  -1.35931  -1.32574  -1.17567  -1.12582
 Alpha  occ. eigenvalues --   -1.03375  -0.97538  -0.93107  -0.88683  -0.85449
 Alpha  occ. eigenvalues --   -0.83984  -0.83568  -0.77562  -0.76633  -0.74565
 Alpha  occ. eigenvalues --   -0.72773  -0.72356  -0.71936  -0.70800  -0.68975
 Alpha  occ. eigenvalues --   -0.67768  -0.67752  -0.66325  -0.64904  -0.62963
 Alpha  occ. eigenvalues --   -0.61265  -0.59812  -0.55497  -0.52954  -0.48194
 Alpha  occ. eigenvalues --   -0.47006  -0.43810  -0.34463  -0.31379
 Alpha virt. eigenvalues --    0.04050   0.08320   0.17345   0.22528   0.23953
 Alpha virt. eigenvalues --    0.24916   0.26059   0.26220   0.28695   0.32092
 Alpha virt. eigenvalues --    0.34774   0.35979   0.39772   0.40400   0.42252

 Mulliken atomic charges:
              1
     1  F   -0.369359
     2  C    0.402729
     3  C   -0.169072
     4  C   -0.303081
     5  C    1.208006
     6  F   -0.383051
     7  F   -0.373033
     8  F   -0.373037
     9  C    0.176309
    10  N   -0.779910
    11  C    0.181161
    12  S   -0.220428
    13  H    0.278884
    14  H    0.290004
    15  H    0.442971
    16  H    0.443885
    17  O   -0.878453
    18  H    0.425476
 Sum of Mulliken atomic charges =   0.00000

 Dipole moment (field-independent basis, Debye):
    X=              5.8309    Y=             -3.1830    Z=             -0.0005  Tot=              6.6431
 Quadrupole moment (field-independent basis, Debye-Ang):
   XX=           -121.1262   YY=            -71.5528   ZZ=            -82.4764
   XY=             14.3049   XZ=              0.0005   YZ=             -0.0001

 Normal termination of Gaussian 09 at Fri Sep 24 07:59:19 2021.
