 Gaussian 09, Revision A.01,
 Gaussian 09:  EM64L-G09RevA.01  8-May-2009

 ------------------------------
 #HF/6-31G* Opt=Z-matrix NoSymm
 ------------------------------

 ------------------------------
 water interaction with atom F1
 ------------------------------
 Symbolic Z-matrix:
 Charge =  0 Multiplicity = 1

 SCF Done:  E(RHF) =  -1154.67680012     A.U. after   15 cycles
 SCF Done:  E(RHF) =  -1154.67680564     A.U. after    7 cycles
 SCF Done:  E(RHF) =  -1154.67681500     A.U. after    8 cycles
 SCF Done:  E(RHF) =  -1154.67682639     A.U. after    9 cycles
 SCF Done:  E(RHF) =  -1154.67682804     A.U. after    8 cycles
 Optimization completed.
    -- Stationary point found.

                         Z-Matrix orientation:
 ---------------------------------------------------------------------
 Center     Atomic      Atomic             Coordinates (Angstroms)
 Number     Number       Type             X           Y           Z
 ---------------------------------------------------------------------
      1          9           0       -1.969300    2.053680    0.000070
      2          6           0       -1.222250    0.944230    0.000030
      3          6           0        0.140030    1.057400   -0.000020
      4          6           0        0.927950   -0.123640   -0.000080
      5          6           0        2.414660   -0.018650   -0.000010
      6          9           0        3.007080   -1.234610   -0.000560
      7          9           0        2.858290    0.654480   -1.086020
      8          9           0        2.858270    0.653500    1.086650
      9          6           0        0.306540   -1.341490   -0.000090
     10          7           0       -1.054170   -1.389970   -0.000060
     11          6           0       -1.930500   -0.312100    0.000000
     12         16           0       -3.570980   -0.506610    0.000030
     13          1           0        0.596860    2.043100   -0.000020
     14          1           0        0.831760   -2.288990   -0.000150
     15          1           0       -1.521480   -2.296390   -0.000090
     16         -1           0       -1.139818    2.612213    0.000045
     17         -1           0       -0.581285    1.782731    0.000015
     18          1           0       -3.219808    3.910820    0.000137
     19         -1           0       -2.390326    4.469353    0.000112
     20          8           0       -3.754436    4.704800    0.000166
     21          1           0       -4.657098    4.386313    0.000196
 ---------------------------------------------------------------------

 Alpha  occ. eigenvalues --  -91.91112 -26.37089 -26.36121 -26.36119 -26.34988
 Alpha  occ. eigenvalues --  -20.54053 -15.69310 -11.54470 -11.38510 -11.37954
 Alpha  occ. eigenvalues --  -11.36695 -11.31963 -11.30826  -8.92204  -6.60534
 Alpha  occ. eigenvalues --   -6.60254  -6.60133  -1.74314  -1.66254  -1.65323
 Alpha  occ. eigenvalues --   -1.64613  -1.36126  -1.32268  -1.17678  -1.12758
 Alpha  occ. eigenvalues --   -1.03494  -0.97660  -0.93223  -0.88872  -0.85554
 Alpha  occ. eigenvalues --   -0.83992  -0.83544  -0.77699  -0.76768  -0.74745
 Alpha  occ. eigenvalues --   -0.72901  -0.72367  -0.71949  -0.70891  -0.68683
 Alpha  occ. eigenvalues --   -0.67755  -0.67730  -0.66295  -0.65030  -0.63138
 Alpha  occ. eigenvalues --   -0.61354  -0.59915  -0.55259  -0.53248  -0.47928
 Alpha  occ. eigenvalues --   -0.47098  -0.43997  -0.34822  -0.31642
 Alpha virt. eigenvalues --    0.03886   0.08174   0.17190   0.23007   0.24191
 Alpha virt. eigenvalues --    0.24698   0.25946   0.25959   0.28862   0.32232
 Alpha virt. eigenvalues --    0.34710   0.36530   0.39891   0.40378   0.42136

 Mulliken atomic charges:
              1
     1  F   -0.369284
     2  C    0.400557
     3  C   -0.165738
     4  C   -0.302888
     5  C    1.209026
     6  F   -0.383052
     7  F   -0.372281
     8  F   -0.372286
     9  C    0.176125
    10  N   -0.779709
    11  C    0.186739
    12  S   -0.236387
    13  H    0.286059
    14  H    0.290709
    15  H    0.443401
    16  H    0.446191
    17  O   -0.889645
    18  H    0.432463
 Sum of Mulliken atomic charges =   0.00000

 Dipole moment (field-independent basis, Debye):
    X=              3.2378    Y=             -5.0989    Z=             -0.0004  Tot=              6.0400
 Quadrupole moment (field-independent basis, Debye-Ang):
   XX=            -98.8335   YY=            -91.0066   ZZ=            -82.4885
   XY=              7.4311   XZ=             -0.0004   YZ=              0.0000

 Normal termination of Gaussian 09 at Fri Sep 24 08:01:25 2021.
