 Gaussian 09, Revision A.01,
 Gaussian 09:  EM64L-G09RevA.01  8-May-2009

 ------------------------------
 #HF/6-31G* Opt=Z-matrix NoSymm
 ------------------------------

 ------------------------------
 water interaction with atom F1
 ------------------------------
 Symbolic Z-matrix:
 Charge =  0 Multiplicity = 1

 SCF Done:  E(RHF) =  -1154.67549035     A.U. after   15 cycles
 SCF Done:  E(RHF) =  -1154.67549576     A.U. after    7 cycles
 SCF Done:  E(RHF) =  -1154.67550458     A.U. after    8 cycles
 SCF Done:  E(RHF) =  -1154.67551478     A.U. after    9 cycles
 SCF Done:  E(RHF) =  -1154.67551659     A.U. after    8 cycles
 Optimization completed.
    -- Stationary point found.

                         Z-Matrix orientation:
 ---------------------------------------------------------------------
 Center     Atomic      Atomic             Coordinates (Angstroms)
 Number     Number       Type             X           Y           Z
 ---------------------------------------------------------------------
      1          9           0       -1.969300    2.053680    0.000070
      2          6           0       -1.222250    0.944230    0.000030
      3          6           0        0.140030    1.057400   -0.000020
      4          6           0        0.927950   -0.123640   -0.000080
      5          6           0        2.414660   -0.018650   -0.000010
      6          9           0        3.007080   -1.234610   -0.000560
      7          9           0        2.858290    0.654480   -1.086020
      8          9           0        2.858270    0.653500    1.086650
      9          6           0        0.306540   -1.341490   -0.000090
     10          7           0       -1.054170   -1.389970   -0.000060
     11          6           0       -1.930500   -0.312100    0.000000
     12         16           0       -3.570980   -0.506610    0.000030
     13          1           0        0.596860    2.043100   -0.000020
     14          1           0        0.831760   -2.288990   -0.000150
     15          1           0       -1.521480   -2.296390   -0.000090
     16         -1           0       -1.139818    2.612213    0.000045
     17         -1           0       -0.581285    1.782731    0.000015
     18          1           0       -3.259478    3.969734    0.000139
     19         -1           0       -2.429996    4.528267    0.000114
     20          8           0       -3.794106    4.763714    0.000168
     21          1           0       -3.928112    4.962770    0.926802
 ---------------------------------------------------------------------

 Alpha  occ. eigenvalues --  -91.90928 -26.37065 -26.36130 -26.36101 -26.34881
 Alpha  occ. eigenvalues --  -20.54246 -15.69160 -11.54443 -11.38346 -11.37869
 Alpha  occ. eigenvalues --  -11.36606 -11.31879 -11.30734  -8.92016  -6.60343
 Alpha  occ. eigenvalues --   -6.60066  -6.59941  -1.74304  -1.66142  -1.65308
 Alpha  occ. eigenvalues --   -1.64611  -1.35999  -1.32449  -1.17596  -1.12640
 Alpha  occ. eigenvalues --   -1.03406  -0.97572  -0.93137  -0.88743  -0.85475
 Alpha  occ. eigenvalues --   -0.83969  -0.83538  -0.77602  -0.76671  -0.74625
 Alpha  occ. eigenvalues --   -0.72817  -0.72346  -0.71922  -0.70815  -0.68863
 Alpha  occ. eigenvalues --   -0.67746  -0.67722  -0.66292  -0.64936  -0.63025
 Alpha  occ. eigenvalues --   -0.61283  -0.59835  -0.55409  -0.53053  -0.48078
 Alpha  occ. eigenvalues --   -0.47028  -0.43877  -0.34586  -0.31473
 Alpha virt. eigenvalues --    0.03997   0.08271   0.17294   0.22730   0.24114
 Alpha virt. eigenvalues --    0.24844   0.26026   0.26140   0.28754   0.32150
 Alpha virt. eigenvalues --    0.34765   0.36186   0.39846   0.40408   0.42224

 Mulliken atomic charges:
              1
     1  F   -0.369323
     2  C    0.400913
     3  C   -0.167834
     4  C   -0.303060
     5  C    1.208503
     6  F   -0.383100
     7  F   -0.372378
     8  F   -0.372995
     9  C    0.176128
    10  N   -0.779733
    11  C    0.182815
    12  S   -0.226400
    13  H    0.283012
    14  H    0.290224
    15  H    0.443055
    16  H    0.444685
    17  O   -0.882908
    18  H    0.428396
 Sum of Mulliken atomic charges =   0.00000

 Dipole moment (field-independent basis, Debye):
    X=              4.5177    Y=             -4.1263    Z=              1.7031  Tot=              6.3511
 Quadrupole moment (field-independent basis, Debye-Ang):
   XX=           -111.4027   YY=            -82.0279   ZZ=            -80.2306
   XY=              9.8092   XZ=             -6.9192   YZ=              8.8257

 Normal termination of Gaussian 09 at Fri Sep 24 08:02:31 2021.
