 Gaussian 16, Revision C.02,
 Gaussian 16:  ES64L-G16RevC.02  7-Dec-2021

 ---------------------------------------------------------
 #MP2/6-31G* SCF=Tight Opt=(ModRedun, MaxCycle=20 ) NoSymm
 ---------------------------------------------------------

 --------
 MolName:
 --------
 Symbolic Z-matrix:
 Charge =  0 Multiplicity = 1

 SCF Done:  E(RHF) =  -661.275613594     A.U. after   16 cycles
 E2 =    -0.2038340046D+01 EUMP2 =    -0.66331395363972D+03
 SCF Done:  E(RHF) =  -661.292637902     A.U. after   15 cycles
 E2 =    -0.2034002441D+01 EUMP2 =    -0.66332664034299D+03
 SCF Done:  E(RHF) =  -661.284618166     A.U. after   17 cycles
 E2 =    -0.2034512299D+01 EUMP2 =    -0.66331913046542D+03
 SCF Done:  E(RHF) =  -661.291945623     A.U. after   16 cycles
 E2 =    -0.2036132486D+01 EUMP2 =    -0.66332807810869D+03
 SCF Done:  E(RHF) =  -661.294689382     A.U. after   13 cycles
 E2 =    -0.2036108197D+01 EUMP2 =    -0.66333079757909D+03
 SCF Done:  E(RHF) =  -661.295906501     A.U. after   13 cycles
 E2 =    -0.2035374618D+01 EUMP2 =    -0.66333128111911D+03
 SCF Done:  E(RHF) =  -661.296083138     A.U. after   12 cycles
 E2 =    -0.2035295119D+01 EUMP2 =    -0.66333137825627D+03
 SCF Done:  E(RHF) =  -661.296073109     A.U. after   11 cycles
 E2 =    -0.2035314088D+01 EUMP2 =    -0.66333138719698D+03
 SCF Done:  E(RHF) =  -661.296089000     A.U. after   10 cycles
 E2 =    -0.2035300098D+01 EUMP2 =    -0.66333138909767D+03
 SCF Done:  E(RHF) =  -661.296088346     A.U. after    9 cycles
 E2 =    -0.2035301202D+01 EUMP2 =    -0.66333138954869D+03
 SCF Done:  E(RHF) =  -661.296079603     A.U. after    9 cycles
 E2 =    -0.2035310077D+01 EUMP2 =    -0.66333138968020D+03
 Optimization completed.
    -- Stationary point found.

                          Input orientation:
 ---------------------------------------------------------------------
 Center     Atomic      Atomic             Coordinates (Angstroms)
 Number     Number       Type             X           Y           Z
 ---------------------------------------------------------------------
      1          8           0       -3.560431   -1.277187   -0.464945
      2          7           0       -3.109536   -0.156562   -0.148673
      3          8           0       -3.836538    0.835188    0.043110
      4          6           0       -1.651100   -0.076767    0.017359
      5          6           0       -1.309983    1.232185    0.275035
      6          7           0       -0.072298    1.733637    0.399736
      7          6           0        1.193816    1.011541    0.370329
      8          1           0        1.841536    1.541752    1.084549
      9          6           0        1.889658    1.031027   -0.989964
     10          6           0        3.296373    0.441531   -0.836147
     11          6           0        3.268898   -0.955147   -0.210122
     12          6           0        2.482841   -0.974295    1.102354
     13          6           0        1.062798   -0.443498    0.872121
     14          1           0        0.491162   -0.431058    1.813712
     15          7           0        0.425321   -1.358124   -0.072750
     16          6           0       -0.828376   -1.197417   -0.356451
     17          1           0       -2.116360    1.946865    0.389173
     18          1           0       -0.015926    2.722673    0.613822
     19          1           0        1.297303    0.445991   -1.701903
     20          1           0        1.940515    2.059418   -1.368800
     21          1           0        3.793923    0.410021   -1.812230
     22          1           0        3.892389    1.114678   -0.203615
     23          1           0        2.794550   -1.657535   -0.902694
     24          1           0        4.293321   -1.307020   -0.039869
     25          1           0        2.414800   -1.996330    1.489172
     26          1           0        2.988474   -0.366868    1.865635
     27          1           0       -1.303142   -1.963689   -0.968945
 ---------------------------------------------------------------------

 Alpha  occ. eigenvalues --  -20.58983 -20.58954 -15.84577 -15.64034 -15.56220
 Alpha  occ. eigenvalues --  -11.34744 -11.29894 -11.29632 -11.28715 -11.27224
 Alpha  occ. eigenvalues --  -11.23759 -11.23220 -11.22718 -11.22107  -1.57009
 Alpha  occ. eigenvalues --   -1.36576  -1.30873  -1.23174  -1.14658  -1.09777
 Alpha  occ. eigenvalues --   -1.02765  -1.01250  -0.93985  -0.89740  -0.85531
 Alpha  occ. eigenvalues --   -0.82547  -0.78831  -0.77367  -0.75179  -0.71715
 Alpha  occ. eigenvalues --   -0.69565  -0.69377  -0.67797  -0.64792  -0.63870
 Alpha  occ. eigenvalues --   -0.62528  -0.60505  -0.57644  -0.57066  -0.55177
 Alpha  occ. eigenvalues --   -0.54656  -0.50726  -0.50128  -0.48343  -0.48163
 Alpha  occ. eigenvalues --   -0.47260  -0.46242  -0.45988  -0.43680  -0.41785
 Alpha  occ. eigenvalues --   -0.40088  -0.33654
 Alpha virt. eigenvalues --    0.07922   0.11288   0.17462   0.21877   0.24111
 Alpha virt. eigenvalues --    0.25469   0.27145   0.28563   0.29019   0.29507
 Alpha virt. eigenvalues --    0.30863   0.31664   0.32171   0.32770   0.33893

 Mulliken charges:
               1
     1  O   -0.467832
     2  N    0.495551
     3  O   -0.508147
     4  C   -0.006552
     5  C    0.186364
     6  N   -0.781153
     7  C    0.058255
     8  H    0.180558
     9  C   -0.301685
    10  C   -0.327530
    11  C   -0.321705
    12  C   -0.306786
    13  C   -0.038141
    14  H    0.191338
    15  N   -0.512642
    16  C    0.115778
    17  H    0.309526
    18  H    0.403896
    19  H    0.189569
    20  H    0.161469
    21  H    0.174594
    22  H    0.149542
    23  H    0.199945
    24  H    0.164649
    25  H    0.187287
    26  H    0.150677
    27  H    0.253175
 Sum of Mulliken charges =  -0.00000

 Dipole moment (field-independent basis, Debye):
    X=              5.4241    Y=              4.5826    Z=              1.3359  Tot=              7.2254
 Quadrupole moment (field-independent basis, Debye-Ang):
   XX=           -106.3218   YY=            -79.0639   ZZ=            -81.7388
   XY=             -1.0929   XZ=             -0.6439   YZ=              1.6125

 Normal termination of Gaussian 16 at Sat Jul  1 15:34:10 2023.
