 Gaussian 16, Revision C.02,
 Gaussian 16:  ES64L-G16RevC.02  7-Dec-2021

 ---------------------------------------------------------
 #MP2/6-31G* SCF=Tight Opt=(ModRedun, MaxCycle=20 ) NoSymm
 ---------------------------------------------------------

 --------
 MolName:
 --------
 Symbolic Z-matrix:
 Charge =  0 Multiplicity = 1

 SCF Done:  E(RHF) =  -661.279873139     A.U. after   16 cycles
 E2 =    -0.2037573411D+01 EUMP2 =    -0.66331744654967D+03
 SCF Done:  E(RHF) =  -661.296917852     A.U. after   15 cycles
 E2 =    -0.2033138637D+01 EUMP2 =    -0.66333005648946D+03
 SCF Done:  E(RHF) =  -661.290176344     A.U. after   17 cycles
 E2 =    -0.2034365914D+01 EUMP2 =    -0.66332454225735D+03
 SCF Done:  E(RHF) =  -661.295419687     A.U. after   15 cycles
 E2 =    -0.2035343198D+01 EUMP2 =    -0.66333076288544D+03
 SCF Done:  E(RHF) =  -661.298087143     A.U. after   13 cycles
 E2 =    -0.2035402901D+01 EUMP2 =    -0.66333349004424D+03
 SCF Done:  E(RHF) =  -661.299073702     A.U. after   12 cycles
 E2 =    -0.2034693862D+01 EUMP2 =    -0.66333376756373D+03
 SCF Done:  E(RHF) =  -661.299322424     A.U. after   12 cycles
 E2 =    -0.2034516127D+01 EUMP2 =    -0.66333383855099D+03
 SCF Done:  E(RHF) =  -661.299311305     A.U. after   11 cycles
 E2 =    -0.2034540365D+01 EUMP2 =    -0.66333385166998D+03
 SCF Done:  E(RHF) =  -661.299244763     A.U. after   11 cycles
 E2 =    -0.2034611801D+01 EUMP2 =    -0.66333385656404D+03
 SCF Done:  E(RHF) =  -661.299232783     A.U. after    9 cycles
 E2 =    -0.2034624128D+01 EUMP2 =    -0.66333385691106D+03
 Optimization completed.
    -- Stationary point found.

                          Input orientation:
 ---------------------------------------------------------------------
 Center     Atomic      Atomic             Coordinates (Angstroms)
 Number     Number       Type             X           Y           Z
 ---------------------------------------------------------------------
      1          8           0       -3.536465   -1.335957   -0.408479
      2          7           0       -3.115590   -0.194262   -0.133164
      3          8           0       -3.864219    0.785173    0.043632
      4          6           0       -1.668068   -0.049266   -0.000999
      5          6           0       -1.305225    1.246706    0.274160
      6          7           0       -0.064452    1.742352    0.393214
      7          6           0        1.199913    1.018033    0.364829
      8          1           0        1.847661    1.547288    1.079816
      9          6           0        1.899589    1.033453   -0.993241
     10          6           0        3.302113    0.435188   -0.834360
     11          6           0        3.264201   -0.961305   -0.208229
     12          6           0        2.473630   -0.976245    1.101732
     13          6           0        1.058679   -0.433990    0.868214
     14          1           0        0.484465   -0.417116    1.808134
     15          7           0        0.416585   -1.338452   -0.081890
     16          6           0       -0.834054   -1.168778   -0.371584
     17          1           0       -2.106747    1.966679    0.403161
     18          1           0       -0.007221    2.728706    0.618346
     19          1           0        1.306196    0.452321   -1.707339
     20          1           0        1.958069    2.061659   -1.371424
     21          1           0        3.802900    0.400461   -1.808665
     22          1           0        3.900095    1.104764   -0.199870
     23          1           0        2.788088   -1.660758   -0.902511
     24          1           0        4.285975   -1.319144   -0.034590
     25          1           0        2.396838   -1.998260    1.487026
     26          1           0        2.981438   -0.373629    1.867428
     27          1           0       -1.302423   -1.930620   -0.994337
 ---------------------------------------------------------------------

 Alpha  occ. eigenvalues --  -20.59107 -20.58919 -15.84647 -15.64085 -15.56167
 Alpha  occ. eigenvalues --  -11.34873 -11.29728 -11.29629 -11.28650 -11.27182
 Alpha  occ. eigenvalues --  -11.23745 -11.23215 -11.22705 -11.22099  -1.57061
 Alpha  occ. eigenvalues --   -1.36643  -1.30925  -1.23118  -1.14686  -1.09806
 Alpha  occ. eigenvalues --   -1.02784  -1.01282  -0.94234  -0.89721  -0.85547
 Alpha  occ. eigenvalues --   -0.82503  -0.78719  -0.77387  -0.75191  -0.71875
 Alpha  occ. eigenvalues --   -0.69677  -0.69405  -0.67809  -0.64853  -0.63829
 Alpha  occ. eigenvalues --   -0.62443  -0.60398  -0.57671  -0.57033  -0.55131
 Alpha  occ. eigenvalues --   -0.54621  -0.50742  -0.50123  -0.48502  -0.48142
 Alpha  occ. eigenvalues --   -0.47319  -0.46194  -0.46023  -0.43677  -0.41749
 Alpha  occ. eigenvalues --   -0.39964  -0.33739
 Alpha virt. eigenvalues --    0.07681   0.11542   0.17383   0.21864   0.24125
 Alpha virt. eigenvalues --    0.25599   0.27143   0.28668   0.29031   0.29594
 Alpha virt. eigenvalues --    0.30761   0.31729   0.32094   0.32766   0.33927

 Mulliken charges:
               1
     1  O   -0.467412
     2  N    0.494380
     3  O   -0.506784
     4  C   -0.004458
     5  C    0.187547
     6  N   -0.780773
     7  C    0.059294
     8  H    0.180337
     9  C   -0.301551
    10  C   -0.327737
    11  C   -0.321627
    12  C   -0.306742
    13  C   -0.037528
    14  H    0.190600
    15  N   -0.512190
    16  C    0.118970
    17  H    0.302633
    18  H    0.404413
    19  H    0.189841
    20  H    0.161520
    21  H    0.174627
    22  H    0.149456
    23  H    0.199934
    24  H    0.164609
    25  H    0.187196
    26  H    0.150497
    27  H    0.250947
 Sum of Mulliken charges =  -0.00000

 Dipole moment (field-independent basis, Debye):
    X=              5.4231    Y=              4.6877    Z=              1.3124  Tot=              7.2875
 Quadrupole moment (field-independent basis, Debye-Ang):
   XX=           -106.2391   YY=            -79.1682   ZZ=            -81.5863
   XY=             -1.4286   XZ=             -0.3804   YZ=              1.7818

 Normal termination of Gaussian 16 at Sat Jul  1 15:09:36 2023.
