 Gaussian 16, Revision C.02,
 Gaussian 16:  ES64L-G16RevC.02  7-Dec-2021

 ---------------------------------------------------------
 #MP2/6-31G* SCF=Tight Opt=(ModRedun, MaxCycle=20 ) NoSymm
 ---------------------------------------------------------

 --------
 MolName:
 --------
 Symbolic Z-matrix:
 Charge =  0 Multiplicity = 1

 SCF Done:  E(RHF) =  -661.281097645     A.U. after   16 cycles
 E2 =    -0.2037294673D+01 EUMP2 =    -0.66331839231814D+03
 SCF Done:  E(RHF) =  -661.298252560     A.U. after   14 cycles
 E2 =    -0.2032813021D+01 EUMP2 =    -0.66333106558187D+03
 SCF Done:  E(RHF) =  -661.296977422     A.U. after   15 cycles
 E2 =    -0.2033705088D+01 EUMP2 =    -0.66333068250960D+03
 SCF Done:  E(RHF) =  -661.293390933     A.U. after   16 cycles
 E2 =    -0.2035579282D+01 EUMP2 =    -0.66332897021522D+03
 SCF Done:  E(RHF) =  -661.291834021     A.U. after   15 cycles
 E2 =    -0.2035795812D+01 EUMP2 =    -0.66332762983329D+03
 SCF Done:  E(RHF) =  -661.298723141     A.U. after   12 cycles
 E2 =    -0.2033533330D+01 EUMP2 =    -0.66333225647086D+03
 SCF Done:  E(RHF) =  -661.299619535     A.U. after   15 cycles
 E2 =    -0.2034611227D+01 EUMP2 =    -0.66333423076159D+03
 SCF Done:  E(RHF) =  -661.300132959     A.U. after   12 cycles
 E2 =    -0.2034417080D+01 EUMP2 =    -0.66333455003859D+03
 SCF Done:  E(RHF) =  -661.300409501     A.U. after   12 cycles
 E2 =    -0.2034220061D+01 EUMP2 =    -0.66333462956217D+03
 SCF Done:  E(RHF) =  -661.300412947     A.U. after   11 cycles
 E2 =    -0.2034231320D+01 EUMP2 =    -0.66333464426707D+03
 SCF Done:  E(RHF) =  -661.300373416     A.U. after   11 cycles
 E2 =    -0.2034275870D+01 EUMP2 =    -0.66333464928542D+03
 SCF Done:  E(RHF) =  -661.300362758     A.U. after    9 cycles
 E2 =    -0.2034286650D+01 EUMP2 =    -0.66333464940735D+03
 Optimization completed.
    -- Stationary point found.

                          Input orientation:
 ---------------------------------------------------------------------
 Center     Atomic      Atomic             Coordinates (Angstroms)
 Number     Number       Type             X           Y           Z
 ---------------------------------------------------------------------
      1          8           0       -3.506871   -1.390442   -0.370261
      2          7           0       -3.121119   -0.232262   -0.118046
      3          8           0       -3.895343    0.728832    0.055915
      4          6           0       -1.686688   -0.023767   -0.009400
      5          6           0       -1.301391    1.260763    0.275183
      6          7           0       -0.057123    1.750317    0.385887
      7          6           0        1.205680    1.024113    0.358948
      8          1           0        1.853525    1.553268    1.074108
      9          6           0        1.909060    1.034722   -0.996958
     10          6           0        3.307446    0.428089   -0.832829
     11          6           0        3.259469   -0.967800   -0.205782
     12          6           0        2.464593   -0.977941    1.101768
     13          6           0        1.054854   -0.424312    0.865265
     14          1           0        0.478400   -0.402647    1.803728
     15          7           0        0.408170   -1.317948   -0.090583
     16          6           0       -0.839205   -1.138245   -0.385881
     17          1           0       -2.096110    1.987762    0.418583
     18          1           0        0.001790    2.735558    0.614736
     19          1           0        1.314741    0.457053   -1.712906
     20          1           0        1.975044    2.062526   -1.375029
     21          1           0        3.811328    0.389655   -1.805389
     22          1           0        3.907306    1.094584   -0.196831
     23          1           0        2.781707   -1.664795   -0.901364
     24          1           0        4.278645   -1.331276   -0.028625
     25          1           0        2.379172   -1.999727    1.485988
     26          1           0        2.974636   -0.379830    1.869548
     27          1           0       -1.300716   -1.893241   -1.021794
 ---------------------------------------------------------------------

 Alpha  occ. eigenvalues --  -20.59237 -20.58904 -15.84722 -15.64136 -15.56111
 Alpha  occ. eigenvalues --  -11.35018 -11.29622 -11.29559 -11.28627 -11.27134
 Alpha  occ. eigenvalues --  -11.23728 -11.23208 -11.22692 -11.22089  -1.57116
 Alpha  occ. eigenvalues --   -1.36710  -1.30977  -1.23064  -1.14703  -1.09819
 Alpha  occ. eigenvalues --   -1.02805  -1.01308  -0.94482  -0.89684  -0.85566
 Alpha  occ. eigenvalues --   -0.82448  -0.78609  -0.77411  -0.75203  -0.72020
 Alpha  occ. eigenvalues --   -0.69771  -0.69438  -0.67820  -0.64892  -0.63777
 Alpha  occ. eigenvalues --   -0.62367  -0.60281  -0.57700  -0.57001  -0.55077
 Alpha  occ. eigenvalues --   -0.54582  -0.50762  -0.50108  -0.48656  -0.48102
 Alpha  occ. eigenvalues --   -0.47372  -0.46147  -0.46045  -0.43678  -0.41695
 Alpha  occ. eigenvalues --   -0.39847  -0.33829
 Alpha virt. eigenvalues --    0.07464   0.11800   0.17307   0.21848   0.24113
 Alpha virt. eigenvalues --    0.25665   0.27134   0.28694   0.29044   0.29635
 Alpha virt. eigenvalues --    0.30683   0.31798   0.32036   0.32767   0.33950

 Mulliken charges:
               1
     1  O   -0.467251
     2  N    0.491310
     3  O   -0.504056
     4  C    0.000465
     5  C    0.188868
     6  N   -0.780292
     7  C    0.060272
     8  H    0.180075
     9  C   -0.301432
    10  C   -0.327939
    11  C   -0.321487
    12  C   -0.306658
    13  C   -0.037177
    14  H    0.189953
    15  N   -0.511221
    16  C    0.120027
    17  H    0.295302
    18  H    0.404871
    19  H    0.190187
    20  H    0.161381
    21  H    0.174648
    22  H    0.149360
    23  H    0.199934
    24  H    0.164540
    25  H    0.187062
    26  H    0.150349
    27  H    0.248909
 Sum of Mulliken charges =  -0.00000

 Dipole moment (field-independent basis, Debye):
    X=              5.4160    Y=              4.7962    Z=              1.2793  Tot=              7.3466
 Quadrupole moment (field-independent basis, Debye-Ang):
   XX=           -106.1391   YY=            -79.2238   ZZ=            -81.5022
   XY=             -1.7654   XZ=             -0.1295   YZ=              1.8560

 Normal termination of Gaussian 16 at Sat Jul  1 14:05:08 2023.
