 Gaussian 16, Revision C.02,
 Gaussian 16:  ES64L-G16RevC.02  7-Dec-2021

 ---------------------------------------------------------
 #MP2/6-31G* SCF=Tight Opt=(ModRedun, MaxCycle=20 ) NoSymm
 ---------------------------------------------------------

 --------
 MolName:
 --------
 Symbolic Z-matrix:
 Charge =  0 Multiplicity = 1

 SCF Done:  E(RHF) =  -661.280048386     A.U. after   16 cycles
 E2 =    -0.2037372671D+01 EUMP2 =    -0.66331742105643D+03
 SCF Done:  E(RHF) =  -661.297308143     A.U. after   14 cycles
 E2 =    -0.2032875176D+01 EUMP2 =    -0.66333018331896D+03
 SCF Done:  E(RHF) =  -661.299437179     A.U. after   14 cycles
 E2 =    -0.2033272851D+01 EUMP2 =    -0.66333271002946D+03
 SCF Done:  E(RHF) =  -661.299111945     A.U. after   14 cycles
 E2 =    -0.2034457384D+01 EUMP2 =    -0.66333356932833D+03
 SCF Done:  E(RHF) =  -661.288361465     A.U. after   17 cycles
 E2 =    -0.2037090181D+01 EUMP2 =    -0.66332545164558D+03
 SCF Done:  E(RHF) =  -661.299157882     A.U. after   13 cycles
 E2 =    -0.2034663954D+01 EUMP2 =    -0.66333382183591D+03
 SCF Done:  E(RHF) =  -661.299657566     A.U. after   12 cycles
 E2 =    -0.2034231117D+01 EUMP2 =    -0.66333388868309D+03
 SCF Done:  E(RHF) =  -661.299780800     A.U. after   11 cycles
 E2 =    -0.2034119091D+01 EUMP2 =    -0.66333389989075D+03
 SCF Done:  E(RHF) =  -661.299695551     A.U. after   10 cycles
 E2 =    -0.2034207124D+01 EUMP2 =    -0.66333390267475D+03
 Optimization completed.
    -- Stationary point found.

                          Input orientation:
 ---------------------------------------------------------------------
 Center     Atomic      Atomic             Coordinates (Angstroms)
 Number     Number       Type             X           Y           Z
 ---------------------------------------------------------------------
      1          8           0       -3.473166   -1.441474   -0.342702
      2          7           0       -3.125755   -0.269497   -0.104443
      3          8           0       -3.927677    0.669291    0.072373
      4          6           0       -1.706039    0.001663   -0.014442
      5          6           0       -1.298228    1.275733    0.275315
      6          7           0       -0.050117    1.758307    0.376903
      7          6           0        1.211107    1.029898    0.352899
      8          1           0        1.858579    1.559313    1.068401
      9          6           0        1.919390    1.035019   -1.000202
     10          6           0        3.313296    0.419874   -0.829295
     11          6           0        3.254470   -0.975105   -0.200827
     12          6           0        2.454146   -0.979725    1.103565
     13          6           0        1.050107   -0.414587    0.862725
     14          1           0        0.470731   -0.387661    1.799268
     15          7           0        0.399678   -1.296469   -0.099932
     16          6           0       -0.843810   -1.105479   -0.401785
     17          1           0       -2.084332    2.011059    0.433212
     18          1           0        0.011627    2.743157    0.605993
     19          1           0        1.324859    0.460743   -1.718436
     20          1           0        1.993475    2.062272   -1.378295
     21          1           0        3.821031    0.377241   -1.799630
     22          1           0        3.914569    1.083397   -0.191526
     23          1           0        2.775642   -1.669841   -0.897857
     24          1           0        4.270764   -1.344256   -0.019038
     25          1           0        2.359642   -2.001006    1.487081
     26          1           0        2.965740   -0.385843    1.873603
     27          1           0       -1.297739   -1.850995   -1.053939
 ---------------------------------------------------------------------

 Alpha  occ. eigenvalues --  -20.59369 -20.58903 -15.84804 -15.64176 -15.56055
 Alpha  occ. eigenvalues --  -11.35164 -11.29611 -11.29392 -11.28637 -11.27082
 Alpha  occ. eigenvalues --  -11.23707 -11.23198 -11.22677 -11.22076  -1.57185
 Alpha  occ. eigenvalues --   -1.36784  -1.31021  -1.23018  -1.14706  -1.09815
 Alpha  occ. eigenvalues --   -1.02827  -1.01327  -0.94721  -0.89637  -0.85582
 Alpha  occ. eigenvalues --   -0.82384  -0.78503  -0.77440  -0.75214  -0.72139
 Alpha  occ. eigenvalues --   -0.69860  -0.69474  -0.67827  -0.64919  -0.63719
 Alpha  occ. eigenvalues --   -0.62300  -0.60161  -0.57725  -0.56971  -0.55016
 Alpha  occ. eigenvalues --   -0.54540  -0.50785  -0.50086  -0.48795  -0.48054
 Alpha  occ. eigenvalues --   -0.47419  -0.46102  -0.46048  -0.43684  -0.41624
 Alpha  occ. eigenvalues --   -0.39732  -0.33920
 Alpha virt. eigenvalues --    0.07268   0.12063   0.17238   0.21831   0.24086
 Alpha virt. eigenvalues --    0.25691   0.27120   0.28681   0.29058   0.29612
 Alpha virt. eigenvalues --    0.30653   0.31867   0.31998   0.32772   0.33969

 Mulliken charges:
               1
     1  O   -0.467174
     2  N    0.487065
     3  O   -0.500695
     4  C    0.007439
     5  C    0.190509
     6  N   -0.780010
     7  C    0.061127
     8  H    0.179768
     9  C   -0.301278
    10  C   -0.328151
    11  C   -0.321310
    12  C   -0.306569
    13  C   -0.036939
    14  H    0.189334
    15  N   -0.509733
    16  C    0.119453
    17  H    0.288030
    18  H    0.405219
    19  H    0.190590
    20  H    0.161124
    21  H    0.174651
    22  H    0.149256
    23  H    0.199937
    24  H    0.164446
    25  H    0.186885
    26  H    0.150221
    27  H    0.246803
 Sum of Mulliken charges =  -0.00000

 Dipole moment (field-independent basis, Debye):
    X=              5.4009    Y=              4.9040    Z=              1.2431  Tot=              7.4003
 Quadrupole moment (field-independent basis, Debye-Ang):
   XX=           -106.0161   YY=            -79.2541   ZZ=            -81.4514
   XY=             -2.1014   XZ=              0.1083   YZ=              1.8817

 Normal termination of Gaussian 16 at Sat Jul  1 14:25:07 2023.
