 Gaussian 16, Revision C.02,
 Gaussian 16:  ES64L-G16RevC.02  7-Dec-2021

 ---------------------------------------------------------
 #MP2/6-31G* SCF=Tight Opt=(ModRedun, MaxCycle=20 ) NoSymm
 ---------------------------------------------------------

 --------
 MolName:
 --------
 Symbolic Z-matrix:
 Charge =  0 Multiplicity = 1

 SCF Done:  E(RHF) =  -661.277046376     A.U. after   16 cycles
 E2 =    -0.2037771711D+01 EUMP2 =    -0.66331481808623D+03
 SCF Done:  E(RHF) =  -661.294496731     A.U. after   15 cycles
 E2 =    -0.2033260964D+01 EUMP2 =    -0.66332775769477D+03
 SCF Done:  E(RHF) =  -661.295572418     A.U. after   15 cycles
 E2 =    -0.2033628030D+01 EUMP2 =    -0.66332920044749D+03
 SCF Done:  E(RHF) =  -661.286650577     A.U. after   17 cycles
 E2 =    -0.2036396910D+01 EUMP2 =    -0.66332304748688D+03
 SCF Done:  E(RHF) =  -661.296027740     A.U. after   14 cycles
 E2 =    -0.2035287280D+01 EUMP2 =    -0.66333131502055D+03
 SCF Done:  E(RHF) =  -661.296878276     A.U. after   13 cycles
 E2 =    -0.2034753819D+01 EUMP2 =    -0.66333163209493D+03
 SCF Done:  E(RHF) =  -661.297484169     A.U. after   13 cycles
 E2 =    -0.2034247881D+01 EUMP2 =    -0.66333173205050D+03
 SCF Done:  E(RHF) =  -661.297456886     A.U. after   11 cycles
 E2 =    -0.2034297382D+01 EUMP2 =    -0.66333175426820D+03
 SCF Done:  E(RHF) =  -661.297336125     A.U. after   11 cycles
 E2 =    -0.2034424120D+01 EUMP2 =    -0.66333176024526D+03
 SCF Done:  E(RHF) =  -661.297264972     A.U. after   10 cycles
 E2 =    -0.2034496196D+01 EUMP2 =    -0.66333176116818D+03
 SCF Done:  E(RHF) =  -661.297264903     A.U. after    9 cycles
 E2 =    -0.2034496325D+01 EUMP2 =    -0.66333176122864D+03
 Optimization completed.
    -- Stationary point found.

                          Input orientation:
 ---------------------------------------------------------------------
 Center     Atomic      Atomic             Coordinates (Angstroms)
 Number     Number       Type             X           Y           Z
 ---------------------------------------------------------------------
      1          8           0       -3.436230   -1.491357   -0.317730
      2          7           0       -3.129687   -0.307225   -0.087281
      3          8           0       -3.961875    0.604731    0.097752
      4          6           0       -1.726301    0.026265   -0.015296
      5          6           0       -1.295898    1.290663    0.275916
      6          7           0       -0.043421    1.766253    0.365563
      7          6           0        1.215826    1.035165    0.345472
      8          1           0        1.862542    1.564726    1.061900
      9          6           0        1.930296    1.034797   -1.004058
     10          6           0        3.319636    0.411496   -0.825141
     11          6           0        3.249719   -0.982453   -0.195309
     12          6           0        2.442826   -0.981814    1.105220
     13          6           0        1.044722   -0.405007    0.859518
     14          1           0        0.461968   -0.372424    1.793885
     15          7           0        0.390825   -1.274844   -0.110758
     16          6           0       -0.848574   -1.071426   -0.419102
     17          1           0       -2.071742    2.035294    0.448845
     18          1           0        0.021150    2.751293    0.592565
     19          1           0        1.336245    0.463951   -1.725215
     20          1           0        2.012739    2.061468   -1.382122
     21          1           0        3.832314    0.364667   -1.792702
     22          1           0        3.921532    1.072255   -0.185009
     23          1           0        2.770718   -1.675056   -0.894305
     24          1           0        4.263045   -1.356977   -0.007921
     25          1           0        2.338748   -2.002712    1.487521
     26          1           0        2.955568   -0.392749    1.878261
     27          1           0       -1.293692   -1.803979   -1.091479
 ---------------------------------------------------------------------

 Alpha  occ. eigenvalues --  -20.59496 -20.58918 -15.84891 -15.64204 -15.56013
 Alpha  occ. eigenvalues --  -11.35315 -11.29596 -11.29243 -11.28693 -11.27035
 Alpha  occ. eigenvalues --  -11.23682 -11.23187 -11.22667 -11.22066  -1.57231
 Alpha  occ. eigenvalues --   -1.36830  -1.31051  -1.22969  -1.14701  -1.09803
 Alpha  occ. eigenvalues --   -1.02848  -1.01343  -0.94949  -0.89584  -0.85599
 Alpha  occ. eigenvalues --   -0.82316  -0.78391  -0.77465  -0.75227  -0.72228
 Alpha  occ. eigenvalues --   -0.69931  -0.69495  -0.67824  -0.64937  -0.63646
 Alpha  occ. eigenvalues --   -0.62240  -0.60041  -0.57741  -0.56949  -0.54953
 Alpha  occ. eigenvalues --   -0.54492  -0.50812  -0.50053  -0.48918  -0.48001
 Alpha  occ. eigenvalues --   -0.47453  -0.46081  -0.46016  -0.43684  -0.41535
 Alpha  occ. eigenvalues --   -0.39631  -0.34020
 Alpha virt. eigenvalues --    0.07074   0.12328   0.17175   0.21804   0.24039
 Alpha virt. eigenvalues --    0.25680   0.27098   0.28636   0.29063   0.29529
 Alpha virt. eigenvalues --    0.30663   0.31917   0.31981   0.32774   0.33978

 Mulliken charges:
               1
     1  O   -0.466841
     2  N    0.481291
     3  O   -0.496913
     4  C    0.016460
     5  C    0.192284
     6  N   -0.780057
     7  C    0.062081
     8  H    0.179357
     9  C   -0.301055
    10  C   -0.328356
    11  C   -0.321051
    12  C   -0.306517
    13  C   -0.036897
    14  H    0.188735
    15  N   -0.507612
    16  C    0.117481
    17  H    0.280965
    18  H    0.405481
    19  H    0.190985
    20  H    0.160804
    21  H    0.174639
    22  H    0.149138
    23  H    0.199880
    24  H    0.164341
    25  H    0.186710
    26  H    0.150163
    27  H    0.244506
 Sum of Mulliken charges =  -0.00000

 Dipole moment (field-independent basis, Debye):
    X=              5.3828    Y=              5.0138    Z=              1.1974  Tot=              7.4530
 Quadrupole moment (field-independent basis, Debye-Ang):
   XX=           -105.8951   YY=            -79.2798   ZZ=            -81.4229
   XY=             -2.4676   XZ=              0.3766   YZ=              1.8757

 Normal termination of Gaussian 16 at Sat Jul  1 14:48:52 2023.
