 Gaussian 16, Revision C.02,
 Gaussian 16:  ES64L-G16RevC.02  7-Dec-2021

 ---------------------------------------------------------
 #MP2/6-31G* SCF=Tight Opt=(ModRedun, MaxCycle=20 ) NoSymm
 ---------------------------------------------------------

 --------
 MolName:
 --------
 Symbolic Z-matrix:
 Charge =  0 Multiplicity = 1

 SCF Done:  E(RHF) =  -661.279340755     A.U. after   16 cycles
 E2 =    -0.2037673714D+01 EUMP2 =    -0.66331701446877D+03
 SCF Done:  E(RHF) =  -661.296356967     A.U. after   15 cycles
 E2 =    -0.2033253855D+01 EUMP2 =    -0.66332961082258D+03
 SCF Done:  E(RHF) =  -661.289043549     A.U. after   17 cycles
 E2 =    -0.2034417399D+01 EUMP2 =    -0.66332346094853D+03
 SCF Done:  E(RHF) =  -661.295086750     A.U. after   15 cycles
 E2 =    -0.2035433363D+01 EUMP2 =    -0.66333052011296D+03
 SCF Done:  E(RHF) =  -661.297627697     A.U. after   13 cycles
 E2 =    -0.2035505328D+01 EUMP2 =    -0.66333313302478D+03
 SCF Done:  E(RHF) =  -661.298638703     A.U. after   12 cycles
 E2 =    -0.2034794201D+01 EUMP2 =    -0.66333343290330D+03
 SCF Done:  E(RHF) =  -661.298864615     A.U. after   12 cycles
 E2 =    -0.2034639542D+01 EUMP2 =    -0.66333350415747D+03
 SCF Done:  E(RHF) =  -661.298859847     A.U. after   11 cycles
 E2 =    -0.2034656828D+01 EUMP2 =    -0.66333351667503D+03
 SCF Done:  E(RHF) =  -661.298810132     A.U. after   11 cycles
 E2 =    -0.2034711373D+01 EUMP2 =    -0.66333352150503D+03
 SCF Done:  E(RHF) =  -661.298797759     A.U. after   10 cycles
 E2 =    -0.2034724198D+01 EUMP2 =    -0.66333352195687D+03
 Optimization completed.
    -- Stationary point found.

                          Input orientation:
 ---------------------------------------------------------------------
 Center     Atomic      Atomic             Coordinates (Angstroms)
 Number     Number       Type             X           Y           Z
 ---------------------------------------------------------------------
      1          8           0       -3.541547   -1.326251   -0.415220
      2          7           0       -3.114572   -0.188043   -0.134007
      3          8           0       -3.858832    0.794118    0.044874
      4          6           0       -1.664735   -0.054924    0.002835
      5          6           0       -1.306227    1.243472    0.275127
      6          7           0       -0.066112    1.740516    0.394765
      7          6           0        1.198705    1.016845    0.365566
      8          1           0        1.846670    1.546400    1.080107
      9          6           0        1.897011    1.033190   -0.993254
     10          6           0        3.300535    0.436876   -0.835986
     11          6           0        3.265183   -0.959664   -0.209852
     12          6           0        2.476081   -0.975561    1.100955
     13          6           0        1.059921   -0.435797    0.868694
     14          1           0        0.486628   -0.419857    1.809196
     15          7           0        0.418422   -1.342424   -0.080004
     16          6           0       -0.832993   -1.174822   -0.367967
     17          1           0       -2.108906    1.962134    0.401748
     18          1           0       -0.009194    2.727264    0.618389
     19          1           0        1.303602    0.451191   -1.706664
     20          1           0        1.953644    2.061446   -1.371582
     21          1           0        3.800262    0.402858   -1.810860
     22          1           0        3.898304    1.107252   -0.202150
     23          1           0        2.789223   -1.659776   -0.903580
     24          1           0        4.287617   -1.316159   -0.037334
     25          1           0        2.401358   -1.997594    1.486590
     26          1           0        2.983706   -0.371909    1.865946
     27          1           0       -1.302743   -1.937771   -0.988341
 ---------------------------------------------------------------------

 Alpha  occ. eigenvalues --  -20.59083 -20.58924 -15.84633 -15.64075 -15.56177
 Alpha  occ. eigenvalues --  -11.34847 -11.29760 -11.29630 -11.28659 -11.27190
 Alpha  occ. eigenvalues --  -11.23748 -11.23216 -11.22708 -11.22101  -1.57052
 Alpha  occ. eigenvalues --   -1.36631  -1.30915  -1.23128  -1.14682  -1.09802
 Alpha  occ. eigenvalues --   -1.02780  -1.01276  -0.94187  -0.89726  -0.85544
 Alpha  occ. eigenvalues --   -0.82512  -0.78741  -0.77382  -0.75189  -0.71846
 Alpha  occ. eigenvalues --   -0.69658  -0.69399  -0.67806  -0.64844  -0.63838
 Alpha  occ. eigenvalues --   -0.62458  -0.60419  -0.57665  -0.57040  -0.55141
 Alpha  occ. eigenvalues --   -0.54628  -0.50738  -0.50125  -0.48472  -0.48148
 Alpha  occ. eigenvalues --   -0.47308  -0.46203  -0.46018  -0.43678  -0.41757
 Alpha  occ. eigenvalues --   -0.39987  -0.33722
 Alpha virt. eigenvalues --    0.07725   0.11494   0.17398   0.21866   0.24125
 Alpha virt. eigenvalues --    0.25580   0.27144   0.28656   0.29028   0.29581
 Alpha virt. eigenvalues --    0.30779   0.31716   0.32107   0.32766   0.33921

 Mulliken charges:
               1
     1  O   -0.467465
     2  N    0.494766
     3  O   -0.507169
     4  C   -0.005099
     5  C    0.187319
     6  N   -0.780869
     7  C    0.059105
     8  H    0.180378
     9  C   -0.301572
    10  C   -0.327699
    11  C   -0.321646
    12  C   -0.306754
    13  C   -0.037620
    14  H    0.190730
    15  N   -0.512310
    16  C    0.118545
    17  H    0.303991
    18  H    0.404318
    19  H    0.189783
    20  H    0.161527
    21  H    0.174621
    22  H    0.149474
    23  H    0.199933
    24  H    0.164619
    25  H    0.187217
    26  H    0.150530
    27  H    0.251346
 Sum of Mulliken charges =  -0.00000

 Dipole moment (field-independent basis, Debye):
    X=              5.4235    Y=              4.6686    Z=              1.3145  Tot=              7.2759
 Quadrupole moment (field-independent basis, Debye-Ang):
   XX=           -106.2569   YY=            -79.1560   ZZ=            -81.6075
   XY=             -1.3718   XZ=             -0.4144   YZ=              1.7601

 Normal termination of Gaussian 16 at Fri Jun 30 21:45:05 2023.
