 Gaussian 16, Revision C.02,
 Gaussian 16:  ES64L-G16RevC.02  7-Dec-2021

 ---------------------------------------------------------
 #MP2/6-31G* SCF=Tight Opt=(ModRedun, MaxCycle=20 ) NoSymm
 ---------------------------------------------------------

 --------
 MolName:
 --------
 Symbolic Z-matrix:
 Charge =  0 Multiplicity = 1

 SCF Done:  E(RHF) =  -661.276148643     A.U. after   16 cycles
 E2 =    -0.2037765924D+01 EUMP2 =    -0.66331391456752D+03
 SCF Done:  E(RHF) =  -661.294239261     A.U. after   15 cycles
 E2 =    -0.2033710373D+01 EUMP2 =    -0.66332794963358D+03
 SCF Done:  E(RHF) =  -661.296134419     A.U. after   15 cycles
 E2 =    -0.2034387588D+01 EUMP2 =    -0.66333052200671D+03
 SCF Done:  E(RHF) =  -661.294668946     A.U. after   14 cycles
 E2 =    -0.2035603931D+01 EUMP2 =    -0.66333027287708D+03
 SCF Done:  E(RHF) =  -661.287948491     A.U. after   15 cycles
 E2 =    -0.2037743421D+01 EUMP2 =    -0.66332569191282D+03
 SCF Done:  E(RHF) =  -661.287544102     A.U. after   15 cycles
 E2 =    -0.2037423188D+01 EUMP2 =    -0.66332496729043D+03
 SCF Done:  E(RHF) =  -661.296011123     A.U. after   11 cycles
 E2 =    -0.2034830471D+01 EUMP2 =    -0.66333084159417D+03
 SCF Done:  E(RHF) =  -661.296051624     A.U. after   13 cycles
 E2 =    -0.2035348879D+01 EUMP2 =    -0.66333140050345D+03
 SCF Done:  E(RHF) =  -661.296382356     A.U. after   12 cycles
 E2 =    -0.2035063463D+01 EUMP2 =    -0.66333144581950D+03
 SCF Done:  E(RHF) =  -661.296499907     A.U. after   11 cycles
 E2 =    -0.2034958269D+01 EUMP2 =    -0.66333145817651D+03
 SCF Done:  E(RHF) =  -661.296452105     A.U. after   11 cycles
 E2 =    -0.2035009764D+01 EUMP2 =    -0.66333146186888D+03
 SCF Done:  E(RHF) =  -661.296436845     A.U. after    9 cycles
 E2 =    -0.2035025450D+01 EUMP2 =    -0.66333146229448D+03
 Optimization completed.
    -- Stationary point found.

                          Input orientation:
 ---------------------------------------------------------------------
 Center     Atomic      Atomic             Coordinates (Angstroms)
 Number     Number       Type             X           Y           Z
 ---------------------------------------------------------------------
      1          8           0       -3.472330   -1.267252   -0.762533
      2          7           0       -3.077051   -0.154357   -0.366205
      3          8           0       -3.811308    0.851515   -0.315928
      4          6           0       -1.686522   -0.048585    0.071279
      5          6           0       -1.289990    1.241436    0.336979
      6          7           0       -0.054875    1.718358    0.543511
      7          6           0        1.211770    1.011989    0.438271
      8          1           0        1.897074    1.553230    1.106887
      9          6           0        1.817576    1.022300   -0.964291
     10          6           0        3.230884    0.432385   -0.895741
     11          6           0        3.242290   -0.959894   -0.259295
     12          6           0        2.541003   -0.969132    1.100476
     13          6           0        1.110642   -0.435205    0.954514
     14          1           0        0.598040   -0.420838    1.927816
     15          7           0        0.419164   -1.351640    0.052250
     16          6           0       -0.849286   -1.207136   -0.172777
     17          1           0       -2.078688    1.986696    0.384107
     18          1           0        0.000008    2.709329    0.748476
     19          1           0        1.180254    0.432063   -1.631840
     20          1           0        1.844252    2.047900   -1.352959
     21          1           0        3.665148    0.393647   -1.901326
     22          1           0        3.866076    1.109539   -0.307175
     23          1           0        2.724052   -1.666610   -0.915295
     24          1           0        4.275137   -1.312019   -0.152642
     25          1           0        2.495036   -1.988667    1.496685
     26          1           0        3.095115   -0.357880    1.826271
     27          1           0       -1.327461   -2.009153   -0.733514
 ---------------------------------------------------------------------

 Alpha  occ. eigenvalues --  -20.59270 -20.58908 -15.84811 -15.64344 -15.55819
 Alpha  occ. eigenvalues --  -11.35102 -11.29561 -11.29509 -11.28769 -11.27045
 Alpha  occ. eigenvalues --  -11.23810 -11.23224 -11.22610 -11.22061  -1.57181
 Alpha  occ. eigenvalues --   -1.36737  -1.31129  -1.22815  -1.14696  -1.09789
 Alpha  occ. eigenvalues --   -1.02781  -1.01307  -0.94429  -0.89647  -0.85573
 Alpha  occ. eigenvalues --   -0.82457  -0.78772  -0.77332  -0.75217  -0.72138
 Alpha  occ. eigenvalues --   -0.69625  -0.69532  -0.67874  -0.64633  -0.63888
 Alpha  occ. eigenvalues --   -0.62384  -0.60055  -0.57801  -0.56904  -0.55149
 Alpha  occ. eigenvalues --   -0.54601  -0.50601  -0.50300  -0.48713  -0.48104
 Alpha  occ. eigenvalues --   -0.47336  -0.46279  -0.45827  -0.43753  -0.41830
 Alpha  occ. eigenvalues --   -0.39523  -0.33618
 Alpha virt. eigenvalues --    0.07462   0.11462   0.17192   0.22014   0.24375
 Alpha virt. eigenvalues --    0.25963   0.26759   0.28350   0.29175   0.29412
 Alpha virt. eigenvalues --    0.30857   0.32005   0.32114   0.32811   0.33814

 Mulliken charges:
               1
     1  O   -0.467462
     2  N    0.498261
     3  O   -0.502960
     4  C    0.001253
     5  C    0.188361
     6  N   -0.774188
     7  C    0.052790
     8  H    0.181596
     9  C   -0.303279
    10  C   -0.327177
    11  C   -0.322569
    12  C   -0.305847
    13  C   -0.034336
    14  H    0.190993
    15  N   -0.521385
    16  C    0.106220
    17  H    0.295987
    18  H    0.405980
    19  H    0.191434
    20  H    0.161458
    21  H    0.175005
    22  H    0.149546
    23  H    0.200491
    24  H    0.164636
    25  H    0.186974
    26  H    0.149288
    27  H    0.258931
 Sum of Mulliken charges =  -0.00000

 Dipole moment (field-independent basis, Debye):
    X=              5.3180    Y=              4.6189    Z=              2.0225  Tot=              7.3284
 Quadrupole moment (field-independent basis, Debye-Ang):
   XX=           -105.0883   YY=            -78.9352   ZZ=            -82.4273
   XY=             -0.4420   XZ=             -3.7305   YZ=              1.7466

 Normal termination of Gaussian 16 at Sun Jul  2 03:11:08 2023.
