 Gaussian 16, Revision C.02,
 Gaussian 16:  ES64L-G16RevC.02  7-Dec-2021

 ---------------------------------------------------------
 #MP2/6-31G* SCF=Tight Opt=(ModRedun, MaxCycle=20 ) NoSymm
 ---------------------------------------------------------

 --------
 MolName:
 --------
 Symbolic Z-matrix:
 Charge =  0 Multiplicity = 1

 SCF Done:  E(RHF) =  -661.280738599     A.U. after   16 cycles
 E2 =    -0.2037277273D+01 EUMP2 =    -0.66331801587159D+03
 SCF Done:  E(RHF) =  -661.298043248     A.U. after   14 cycles
 E2 =    -0.2032973304D+01 EUMP2 =    -0.66333101655236D+03
 SCF Done:  E(RHF) =  -661.299218330     A.U. after   15 cycles
 E2 =    -0.2033717074D+01 EUMP2 =    -0.66333293540335D+03
 SCF Done:  E(RHF) =  -661.291762137     A.U. after   16 cycles
 E2 =    -0.2035712749D+01 EUMP2 =    -0.66332747488627D+03
 SCF Done:  E(RHF) =  -661.297905145     A.U. after   15 cycles
 E2 =    -0.2035385499D+01 EUMP2 =    -0.66333329064464D+03
 SCF Done:  E(RHF) =  -661.298807082     A.U. after   13 cycles
 E2 =    -0.2034984067D+01 EUMP2 =    -0.66333379114828D+03
 SCF Done:  E(RHF) =  -661.299316749     A.U. after   12 cycles
 E2 =    -0.2034525109D+01 EUMP2 =    -0.66333384185808D+03
 SCF Done:  E(RHF) =  -661.299450832     A.U. after   11 cycles
 E2 =    -0.2034401852D+01 EUMP2 =    -0.66333385268388D+03
 SCF Done:  E(RHF) =  -661.299369701     A.U. after   10 cycles
 E2 =    -0.2034485892D+01 EUMP2 =    -0.66333385559336D+03
 SCF Done:  E(RHF) =  -661.299320758     A.U. after    9 cycles
 E2 =    -0.2034535118D+01 EUMP2 =    -0.66333385587526D+03
 Optimization completed.
    -- Stationary point found.

                          Input orientation:
 ---------------------------------------------------------------------
 Center     Atomic      Atomic             Coordinates (Angstroms)
 Number     Number       Type             X           Y           Z
 ---------------------------------------------------------------------
      1          8           0       -3.509118   -1.325347   -0.569080
      2          7           0       -3.109486   -0.191694   -0.240551
      3          8           0       -3.864304    0.793402   -0.124635
      4          6           0       -1.686054   -0.039008    0.034109
      5          6           0       -1.295248    1.249070    0.306030
      6          7           0       -0.055458    1.733464    0.464282
      7          6           0        1.209788    1.017999    0.398286
      8          1           0        1.876774    1.553748    1.090039
      9          6           0        1.864740    1.028272   -0.981936
     10          6           0        3.271696    0.430658   -0.865223
     11          6           0        3.254008   -0.963229   -0.232314
     12          6           0        2.505558   -0.972794    1.102202
     13          6           0        1.084446   -0.429918    0.910409
     14          1           0        0.539594   -0.411445    1.866926
     15          7           0        0.415290   -1.335438   -0.018385
     16          6           0       -0.843306   -1.175725   -0.280038
     17          1           0       -2.088523    1.985225    0.400336
     18          1           0        0.000597    2.722033    0.679620
     19          1           0        1.248649    0.443696   -1.673703
     20          1           0        1.910772    2.054859   -1.366211
     21          1           0        3.741008    0.391958   -1.854929
     22          1           0        3.889395    1.103042   -0.252982
     23          1           0        2.755897   -1.665591   -0.908080
     24          1           0        4.280851   -1.320402   -0.090157
     25          1           0        2.440261   -1.993356    1.493282
     26          1           0        3.037723   -0.367484    1.849068
     27          1           0       -1.312560   -1.955015   -0.879343
 ---------------------------------------------------------------------

 Alpha  occ. eigenvalues --  -20.59250 -20.58908 -15.84763 -15.64275 -15.55932
 Alpha  occ. eigenvalues --  -11.35069 -11.29593 -11.29524 -11.28702 -11.27089
 Alpha  occ. eigenvalues --  -11.23773 -11.23217 -11.22650 -11.22073  -1.57146
 Alpha  occ. eigenvalues --   -1.36719  -1.31081  -1.22931  -1.14707  -1.09806
 Alpha  occ. eigenvalues --   -1.02801  -1.01311  -0.94464  -0.89674  -0.85576
 Alpha  occ. eigenvalues --   -0.82454  -0.78711  -0.77372  -0.75228  -0.72094
 Alpha  occ. eigenvalues --   -0.69690  -0.69488  -0.67848  -0.64758  -0.63831
 Alpha  occ. eigenvalues --   -0.62382  -0.60168  -0.57763  -0.56956  -0.55115
 Alpha  occ. eigenvalues --   -0.54594  -0.50689  -0.50227  -0.48690  -0.48103
 Alpha  occ. eigenvalues --   -0.47353  -0.46215  -0.45945  -0.43716  -0.41767
 Alpha  occ. eigenvalues --   -0.39659  -0.33721
 Alpha virt. eigenvalues --    0.07476   0.11629   0.17245   0.21944   0.24274
 Alpha virt. eigenvalues --    0.25879   0.27043   0.28521   0.29101   0.29532
 Alpha virt. eigenvalues --    0.30739   0.31908   0.32076   0.32803   0.33878

 Mulliken charges:
               1
     1  O   -0.467243
     2  N    0.494308
     3  O   -0.503699
     4  C    0.000889
     5  C    0.189137
     6  N   -0.778164
     7  C    0.057081
     8  H    0.180834
     9  C   -0.302274
    10  C   -0.327569
    11  C   -0.321964
    12  C   -0.306235
    13  C   -0.035345
    14  H    0.190246
    15  N   -0.518173
    16  C    0.113352
    17  H    0.296228
    18  H    0.405732
    19  H    0.190777
    20  H    0.161342
    21  H    0.174802
    22  H    0.149436
    23  H    0.200276
    24  H    0.164545
    25  H    0.186990
    26  H    0.149802
    27  H    0.254891
 Sum of Mulliken charges =  -0.00000

 Dipole moment (field-independent basis, Debye):
    X=              5.3935    Y=              4.7108    Z=              1.6413  Tot=              7.3468
 Quadrupole moment (field-independent basis, Debye-Ang):
   XX=           -105.8766   YY=            -79.0423   ZZ=            -81.8668
   XY=             -1.0922   XZ=             -1.9445   YZ=              1.7521

 Normal termination of Gaussian 16 at Sun Jul  2 02:47:59 2023.
