 Gaussian 16, Revision C.02,
 Gaussian 16:  ES64L-G16RevC.02  7-Dec-2021

 ---------------------------------------------------------
 #MP2/6-31G* SCF=Tight Opt=(ModRedun, MaxCycle=20 ) NoSymm
 ---------------------------------------------------------

 --------
 MolName:
 --------
 Symbolic Z-matrix:
 Charge =  0 Multiplicity = 1

 SCF Done:  E(RHF) =  -661.281945189     A.U. after   16 cycles
 E2 =    -0.2037157112D+01 EUMP2 =    -0.66331910230051D+03
 SCF Done:  E(RHF) =  -661.298986595     A.U. after   14 cycles
 E2 =    -0.2032671367D+01 EUMP2 =    -0.66333165796209D+03
 SCF Done:  E(RHF) =  -661.300039203     A.U. after   14 cycles
 E2 =    -0.2033407176D+01 EUMP2 =    -0.66333344637823D+03
 SCF Done:  E(RHF) =  -661.288472586     A.U. after   17 cycles
 E2 =    -0.2036117875D+01 EUMP2 =    -0.66332459046150D+03
 SCF Done:  E(RHF) =  -661.299623507     A.U. after   14 cycles
 E2 =    -0.2034734048D+01 EUMP2 =    -0.66333435755498D+03
 SCF Done:  E(RHF) =  -661.299819600     A.U. after   13 cycles
 E2 =    -0.2034762324D+01 EUMP2 =    -0.66333458192442D+03
 SCF Done:  E(RHF) =  -661.300386808     A.U. after   12 cycles
 E2 =    -0.2034253218D+01 EUMP2 =    -0.66333464002586D+03
 SCF Done:  E(RHF) =  -661.300445850     A.U. after   11 cycles
 E2 =    -0.2034201467D+01 EUMP2 =    -0.66333464731646D+03
 SCF Done:  E(RHF) =  -661.300395771     A.U. after   10 cycles
 E2 =    -0.2034253485D+01 EUMP2 =    -0.66333464925605D+03
 Optimization completed.
    -- Stationary point found.

                          Input orientation:
 ---------------------------------------------------------------------
 Center     Atomic      Atomic             Coordinates (Angstroms)
 Number     Number       Type             X           Y           Z
 ---------------------------------------------------------------------
      1          8           0       -3.506755   -1.390720   -0.370811
      2          7           0       -3.121221   -0.232747   -0.117735
      3          8           0       -3.895516    0.728130    0.056627
      4          6           0       -1.686902   -0.024013   -0.008924
      5          6           0       -1.301668    1.260506    0.275997
      6          7           0       -0.057381    1.750065    0.386147
      7          6           0        1.205576    1.023903    0.358979
      8          1           0        1.853473    1.553093    1.074057
      9          6           0        1.908877    1.034924   -0.996936
     10          6           0        3.307354    0.428481   -0.832949
     11          6           0        3.259596   -0.967572   -0.206167
     12          6           0        2.464731   -0.978045    1.101396
     13          6           0        1.055008   -0.424571    0.865070
     14          1           0        0.478644   -0.403081    1.803582
     15          7           0        0.408360   -1.317803   -0.091074
     16          6           0       -0.838964   -1.137977   -0.386203
     17          1           0       -2.096341    1.987352    0.420244
     18          1           0        0.001892    2.735046    0.616048
     19          1           0        1.314756    0.457377   -1.713075
     20          1           0        1.974660    2.062851   -1.374640
     21          1           0        3.811166    0.390347   -1.805512
     22          1           0        3.907131    1.094895   -0.196852
     23          1           0        2.781971   -1.664480   -0.901878
     24          1           0        4.278783   -1.330927   -0.029050
     25          1           0        2.379531   -1.999855    1.485515
     26          1           0        2.974670   -0.379947    1.869226
     27          1           0       -1.300428   -1.892223   -1.023085
 ---------------------------------------------------------------------

 Alpha  occ. eigenvalues --  -20.59236 -20.58902 -15.84722 -15.64136 -15.56112
 Alpha  occ. eigenvalues --  -11.35018 -11.29622 -11.29558 -11.28625 -11.27133
 Alpha  occ. eigenvalues --  -11.23727 -11.23207 -11.22691 -11.22089  -1.57123
 Alpha  occ. eigenvalues --   -1.36714  -1.30976  -1.23068  -1.14703  -1.09820
 Alpha  occ. eigenvalues --   -1.02806  -1.01309  -0.94482  -0.89684  -0.85566
 Alpha  occ. eigenvalues --   -0.82448  -0.78610  -0.77412  -0.75202  -0.72020
 Alpha  occ. eigenvalues --   -0.69774  -0.69441  -0.67821  -0.64893  -0.63779
 Alpha  occ. eigenvalues --   -0.62367  -0.60280  -0.57700  -0.57002  -0.55077
 Alpha  occ. eigenvalues --   -0.54582  -0.50763  -0.50108  -0.48656  -0.48103
 Alpha  occ. eigenvalues --   -0.47372  -0.46147  -0.46045  -0.43678  -0.41695
 Alpha  occ. eigenvalues --   -0.39848  -0.33830
 Alpha virt. eigenvalues --    0.07466   0.11803   0.17307   0.21849   0.24113
 Alpha virt. eigenvalues --    0.25664   0.27133   0.28694   0.29045   0.29637
 Alpha virt. eigenvalues --    0.30683   0.31800   0.32036   0.32767   0.33952

 Mulliken charges:
               1
     1  O   -0.467272
     2  N    0.491380
     3  O   -0.504072
     4  C    0.000419
     5  C    0.188940
     6  N   -0.780286
     7  C    0.060217
     8  H    0.180055
     9  C   -0.301406
    10  C   -0.327965
    11  C   -0.321493
    12  C   -0.306670
    13  C   -0.037152
    14  H    0.189929
    15  N   -0.511151
    16  C    0.120047
    17  H    0.295271
    18  H    0.404866
    19  H    0.190210
    20  H    0.161385
    21  H    0.174656
    22  H    0.149364
    23  H    0.199938
    24  H    0.164546
    25  H    0.187060
    26  H    0.150348
    27  H    0.248836
 Sum of Mulliken charges =  -0.00000

 Dipole moment (field-independent basis, Debye):
    X=              5.4162    Y=              4.7961    Z=              1.2826  Tot=              7.3473
 Quadrupole moment (field-independent basis, Debye-Ang):
   XX=           -106.1373   YY=            -79.2292   ZZ=            -81.4979
   XY=             -1.7691   XZ=             -0.1310   YZ=              1.8596

 Normal termination of Gaussian 16 at Sun Jul  2 01:32:48 2023.
