 Gaussian 16, Revision C.02,
 Gaussian 16:  ES64L-G16RevC.02  7-Dec-2021

 ---------------------------------------------------------
 #MP2/6-31G* SCF=Tight Opt=(ModRedun, MaxCycle=20 ) NoSymm
 ---------------------------------------------------------

 --------
 MolName:
 --------
 Symbolic Z-matrix:
 Charge =  0 Multiplicity = 1

 SCF Done:  E(RHF) =  -661.280253281     A.U. after   16 cycles
 E2 =    -0.2037380807D+01 EUMP2 =    -0.66331763408826D+03
 SCF Done:  E(RHF) =  -661.297341207     A.U. after   15 cycles
 E2 =    -0.2032791190D+01 EUMP2 =    -0.66333013239673D+03
 SCF Done:  E(RHF) =  -661.295255495     A.U. after   15 cycles
 E2 =    -0.2033958912D+01 EUMP2 =    -0.66332921440677D+03
 SCF Done:  E(RHF) =  -661.292167013     A.U. after   16 cycles
 E2 =    -0.2035781237D+01 EUMP2 =    -0.66332794825021D+03
 SCF Done:  E(RHF) =  -661.290096372     A.U. after   15 cycles
 E2 =    -0.2036029664D+01 EUMP2 =    -0.66332612603670D+03
 SCF Done:  E(RHF) =  -661.297643319     A.U. after   12 cycles
 E2 =    -0.2033543707D+01 EUMP2 =    -0.66333118702680D+03
 SCF Done:  E(RHF) =  -661.298722460     A.U. after   15 cycles
 E2 =    -0.2034574335D+01 EUMP2 =    -0.66333329679516D+03
 SCF Done:  E(RHF) =  -661.299234359     A.U. after   13 cycles
 E2 =    -0.2034488060D+01 EUMP2 =    -0.66333372241910D+03
 SCF Done:  E(RHF) =  -661.299660088     A.U. after   12 cycles
 E2 =    -0.2034187867D+01 EUMP2 =    -0.66333384795539D+03
 SCF Done:  E(RHF) =  -661.299563188     A.U. after   11 cycles
 E2 =    -0.2034302791D+01 EUMP2 =    -0.66333386597904D+03
 SCF Done:  E(RHF) =  -661.299523365     A.U. after   10 cycles
 E2 =    -0.2034347184D+01 EUMP2 =    -0.66333387054936D+03
 SCF Done:  E(RHF) =  -661.299522215     A.U. after    9 cycles
 E2 =    -0.2034348680D+01 EUMP2 =    -0.66333387089533D+03
 Optimization completed.
    -- Stationary point found.

                          Input orientation:
 ---------------------------------------------------------------------
 Center     Atomic      Atomic             Coordinates (Angstroms)
 Number     Number       Type             X           Y           Z
 ---------------------------------------------------------------------
      1          8           0       -3.465078   -1.458869   -0.172250
      2          7           0       -3.112553   -0.275184   -0.000282
      3          8           0       -3.906654    0.657928    0.226974
      4          6           0       -1.689554   -0.004407   -0.057224
      5          6           0       -1.308318    1.274822    0.245538
      6          7           0       -0.059928    1.767901    0.309341
      7          6           0        1.199683    1.029984    0.320856
      8          1           0        1.827815    1.551923    1.059058
      9          6           0        1.949603    1.041105   -1.009349
     10          6           0        3.337480    0.424461   -0.799516
     11          6           0        3.258916   -0.973616   -0.180307
     12          6           0        2.419352   -0.984350    1.099171
     13          6           0        1.022879   -0.418397    0.820085
     14          1           0        0.416230   -0.394482    1.739690
     15          7           0        0.398833   -1.299094   -0.163402
     16          6           0       -0.835998   -1.095760   -0.489667
     17          1           0       -2.101303    1.991957    0.441125
     18          1           0        0.003295    2.749293    0.552764
     19          1           0        1.377197    0.471301   -1.748846
     20          1           0        2.035539    2.070256   -1.379671
     21          1           0        3.874660    0.386337   -1.754084
     22          1           0        3.919467    1.084267   -0.140335
     23          1           0        2.801400   -1.664527   -0.895221
     24          1           0        4.268993   -1.344375    0.030676
     25          1           0        2.313487   -2.007465    1.474987
     26          1           0        2.907552   -0.394491    1.887245
     27          1           0       -1.289977   -1.825498   -1.160369
 ---------------------------------------------------------------------

 Alpha  occ. eigenvalues --  -20.59241 -20.58905 -15.84698 -15.63933 -15.56350
 Alpha  occ. eigenvalues --  -11.34946 -11.29647 -11.29613 -11.28560 -11.27179
 Alpha  occ. eigenvalues --  -11.23678 -11.23197 -11.22734 -11.22109  -1.57094
 Alpha  occ. eigenvalues --   -1.36709  -1.30824  -1.23208  -1.14687  -1.09828
 Alpha  occ. eigenvalues --   -1.02795  -1.01299  -0.94474  -0.89677  -0.85545
 Alpha  occ. eigenvalues --   -0.82437  -0.78476  -0.77452  -0.75139  -0.71914
 Alpha  occ. eigenvalues --   -0.69859  -0.69396  -0.67789  -0.65027  -0.63725
 Alpha  occ. eigenvalues --   -0.62338  -0.60390  -0.57619  -0.57036  -0.55034
 Alpha  occ. eigenvalues --   -0.54565  -0.50806  -0.49966  -0.48620  -0.48099
 Alpha  occ. eigenvalues --   -0.47398  -0.46153  -0.46046  -0.43645  -0.41620
 Alpha  occ. eigenvalues --   -0.40080  -0.33949
 Alpha virt. eigenvalues --    0.07434   0.11966   0.17380   0.21697   0.23875
 Alpha virt. eigenvalues --    0.25453   0.27083   0.28763   0.29019   0.29620
 Alpha virt. eigenvalues --    0.30612   0.31734   0.31995   0.32703   0.33991

 Mulliken charges:
               1
     1  O   -0.467390
     2  N    0.490326
     3  O   -0.503612
     4  C    0.001110
     5  C    0.186645
     6  N   -0.779958
     7  C    0.061746
     8  H    0.179339
     9  C   -0.300664
    10  C   -0.328297
    11  C   -0.321120
    12  C   -0.307078
    13  C   -0.039873
    14  H    0.190133
    15  N   -0.500910
    16  C    0.124036
    17  H    0.293058
    18  H    0.403424
    19  H    0.189689
    20  H    0.161528
    21  H    0.174533
    22  H    0.149321
    23  H    0.199502
    24  H    0.164599
    25  H    0.187188
    26  H    0.150918
    27  H    0.241810
 Sum of Mulliken charges =  -0.00000

 Dipole moment (field-independent basis, Debye):
    X=              5.3852    Y=              4.8670    Z=              0.9398  Tot=              7.3192
 Quadrupole moment (field-independent basis, Debye-Ang):
   XX=           -105.8867   YY=            -79.4675   ZZ=            -81.3490
   XY=             -2.4073   XZ=              1.6389   YZ=              2.0548

 Normal termination of Gaussian 16 at Sun Jul  2 02:01:22 2023.
