 Gaussian 16, Revision C.02,
 Gaussian 16:  ES64L-G16RevC.02  7-Dec-2021

 ---------------------------------------------------------
 #MP2/6-31G* SCF=Tight Opt=(ModRedun, MaxCycle=20 ) NoSymm
 ---------------------------------------------------------

 --------
 MolName:
 --------
 Symbolic Z-matrix:
 Charge =  0 Multiplicity = 1

 SCF Done:  E(RHF) =  -661.276579872     A.U. after   16 cycles
 E2 =    -0.2037928748D+01 EUMP2 =    -0.66331450862029D+03
 SCF Done:  E(RHF) =  -661.293621484     A.U. after   15 cycles
 E2 =    -0.2033293414D+01 EUMP2 =    -0.66332691489744D+03
 SCF Done:  E(RHF) =  -661.287374579     A.U. after   17 cycles
 E2 =    -0.2034790972D+01 EUMP2 =    -0.66332216555160D+03
 SCF Done:  E(RHF) =  -661.292682542     A.U. after   15 cycles
 E2 =    -0.2035596212D+01 EUMP2 =    -0.66332827875452D+03
 SCF Done:  E(RHF) =  -661.295553316     A.U. after   14 cycles
 E2 =    -0.2035430970D+01 EUMP2 =    -0.66333098428603D+03
 SCF Done:  E(RHF) =  -661.296727805     A.U. after   13 cycles
 E2 =    -0.2034681465D+01 EUMP2 =    -0.66333140926968D+03
 SCF Done:  E(RHF) =  -661.297043396     A.U. after   12 cycles
 E2 =    -0.2034516324D+01 EUMP2 =    -0.66333155971976D+03
 SCF Done:  E(RHF) =  -661.296928835     A.U. after   11 cycles
 E2 =    -0.2034646355D+01 EUMP2 =    -0.66333157519057D+03
 SCF Done:  E(RHF) =  -661.296843596     A.U. after   11 cycles
 E2 =    -0.2034734724D+01 EUMP2 =    -0.66333157832042D+03
 SCF Done:  E(RHF) =  -661.296833191     A.U. after    9 cycles
 E2 =    -0.2034745344D+01 EUMP2 =    -0.66333157853443D+03
 Optimization completed.
    -- Stationary point found.

                          Input orientation:
 ---------------------------------------------------------------------
 Center     Atomic      Atomic             Coordinates (Angstroms)
 Number     Number       Type             X           Y           Z
 ---------------------------------------------------------------------
      1          8           0       -3.385374   -1.526112    0.022634
      2          7           0       -3.085421   -0.318707    0.113813
      3          8           0       -3.899935    0.582334    0.391249
      4          6           0       -1.695766    0.017885   -0.105323
      5          6           0       -1.316106    1.291104    0.216227
      6          7           0       -0.064060    1.786326    0.232930
      7          6           0        1.191656    1.036120    0.282875
      8          1           0        1.799870    1.551649    1.042417
      9          6           0        1.985618    1.045551   -1.020830
     10          6           0        3.361337    0.418458   -0.766542
     11          6           0        3.252428   -0.980822   -0.154547
     12          6           0        2.370499   -0.990028    1.096339
     13          6           0        0.988725   -0.410837    0.776538
     14          1           0        0.353850   -0.383927    1.676890
     15          7           0        0.387068   -1.278851   -0.233497
     16          6           0       -0.834121   -1.049376   -0.588191
     17          1           0       -2.103873    1.997795    0.465486
     18          1           0        0.005002    2.764444    0.487583
     19          1           0        1.434879    0.483214   -1.781952
     20          1           0        2.091304    2.075490   -1.383765
     21          1           0        3.930213    0.379057   -1.702498
     22          1           0        3.925613    1.072079   -0.086131
     23          1           0        2.814873   -1.666351   -0.886871
     24          1           0        4.252266   -1.359156    0.089207
     25          1           0        2.244158   -2.013909    1.463984
     26          1           0        2.837479   -0.408100    1.902929
     27          1           0       -1.280192   -1.753311   -1.291952
 ---------------------------------------------------------------------

 Alpha  occ. eigenvalues --  -20.59270 -20.58919 -15.84700 -15.63681 -15.56630
 Alpha  occ. eigenvalues --  -11.34857 -11.29676 -11.29663 -11.28509 -11.27220
 Alpha  occ. eigenvalues --  -11.23626 -11.23184 -11.22774 -11.22128  -1.57088
 Alpha  occ. eigenvalues --   -1.36724  -1.30633  -1.23349  -1.14657  -1.09828
 Alpha  occ. eigenvalues --   -1.02772  -1.01282  -0.94434  -0.89651  -0.85516
 Alpha  occ. eigenvalues --   -0.82418  -0.78324  -0.77495  -0.75033  -0.71784
 Alpha  occ. eigenvalues --   -0.69949  -0.69372  -0.67755  -0.65152  -0.63672
 Alpha  occ. eigenvalues --   -0.62298  -0.60488  -0.57527  -0.57057  -0.54986
 Alpha  occ. eigenvalues --   -0.54540  -0.50825  -0.49802  -0.48583  -0.48087
 Alpha  occ. eigenvalues --   -0.47436  -0.46217  -0.45962  -0.43624  -0.41538
 Alpha  occ. eigenvalues --   -0.40344  -0.34080
 Alpha virt. eigenvalues --    0.07399   0.12126   0.17458   0.21434   0.23559
 Alpha virt. eigenvalues --    0.25263   0.26988   0.28729   0.29025   0.29540
 Alpha virt. eigenvalues --    0.30411   0.31761   0.31967   0.32635   0.33997

 Mulliken charges:
               1
     1  O   -0.467282
     2  N    0.491698
     3  O   -0.502284
     4  C    0.003710
     5  C    0.182390
     6  N   -0.777352
     7  C    0.061398
     8  H    0.178617
     9  C   -0.299925
    10  C   -0.328641
    11  C   -0.320814
    12  C   -0.307456
    13  C   -0.043311
    14  H    0.190744
    15  N   -0.488185
    16  C    0.123608
    17  H    0.289570
    18  H    0.401494
    19  H    0.189327
    20  H    0.161705
    21  H    0.174452
    22  H    0.149315
    23  H    0.198995
    24  H    0.164690
    25  H    0.187368
    26  H    0.151505
    27  H    0.234665
 Sum of Mulliken charges =  -0.00000

 Dipole moment (field-independent basis, Debye):
    X=              5.3018    Y=              4.9212    Z=              0.6123  Tot=              7.2597
 Quadrupole moment (field-independent basis, Debye-Ang):
   XX=           -105.1526   YY=            -79.7364   ZZ=            -81.4190
   XY=             -2.9624   XZ=              3.3040   YZ=              2.3259

 Normal termination of Gaussian 16 at Sun Jul  2 02:24:29 2023.
