 Gaussian 16, Revision C.02,
 Gaussian 16:  ES64L-G16RevC.02  7-Dec-2021

 ---------------------------------------------------------
 #MP2/6-31G* SCF=Tight Opt=(ModRedun, MaxCycle=20 ) NoSymm
 ---------------------------------------------------------

 --------
 MolName:
 --------
 Symbolic Z-matrix:
 Charge =  0 Multiplicity = 1

 SCF Done:  E(RHF) =  -661.273957637     A.U. after   16 cycles
 E2 =    -0.2037999375D+01 EUMP2 =    -0.66331195701116D+03
 SCF Done:  E(RHF) =  -661.292388941     A.U. after   15 cycles
 E2 =    -0.2034037410D+01 EUMP2 =    -0.66332642635123D+03
 SCF Done:  E(RHF) =  -661.294611137     A.U. after   15 cycles
 E2 =    -0.2034676895D+01 EUMP2 =    -0.66332928803206D+03
 SCF Done:  E(RHF) =  -661.292566583     A.U. after   14 cycles
 E2 =    -0.2036017292D+01 EUMP2 =    -0.66332858387495D+03
 SCF Done:  E(RHF) =  -661.287893644     A.U. after   15 cycles
 E2 =    -0.2037677031D+01 EUMP2 =    -0.66332557067556D+03
 SCF Done:  E(RHF) =  -661.286994660     A.U. after   15 cycles
 E2 =    -0.2037343937D+01 EUMP2 =    -0.66332433859642D+03
 SCF Done:  E(RHF) =  -661.294528226     A.U. after   11 cycles
 E2 =    -0.2035071297D+01 EUMP2 =    -0.66332959952258D+03
 SCF Done:  E(RHF) =  -661.294640219     A.U. after   13 cycles
 E2 =    -0.2035587626D+01 EUMP2 =    -0.66333022784534D+03
 SCF Done:  E(RHF) =  -661.294972721     A.U. after   12 cycles
 E2 =    -0.2035298214D+01 EUMP2 =    -0.66333027093539D+03
 SCF Done:  E(RHF) =  -661.295107122     A.U. after   11 cycles
 E2 =    -0.2035174993D+01 EUMP2 =    -0.66333028211505D+03
 SCF Done:  E(RHF) =  -661.295066511     A.U. after   11 cycles
 E2 =    -0.2035220076D+01 EUMP2 =    -0.66333028658688D+03
 SCF Done:  E(RHF) =  -661.295045832     A.U. after   10 cycles
 E2 =    -0.2035241196D+01 EUMP2 =    -0.66333028702807D+03
 Optimization completed.
    -- Stationary point found.

                          Input orientation:
 ---------------------------------------------------------------------
 Center     Atomic      Atomic             Coordinates (Angstroms)
 Number     Number       Type             X           Y           Z
 ---------------------------------------------------------------------
      1          8           0       -3.452146   -1.249866   -0.823765
      2          7           0       -3.061804   -0.142820   -0.407024
      3          8           0       -3.788476    0.869390   -0.380430
      4          6           0       -1.687027   -0.050598    0.083885
      5          6           0       -1.288532    1.239960    0.347808
      6          7           0       -0.054961    1.713860    0.570099
      7          6           0        1.211891    1.010172    0.451296
      8          1           0        1.903480    1.553325    1.111645
      9          6           0        1.800390    1.019968   -0.958604
     10          6           0        3.215366    0.432403   -0.906760
     11          6           0        3.236601   -0.959145   -0.269021
     12          6           0        2.551955   -0.967739    1.099178
     13          6           0        1.118911   -0.436513    0.969277
     14          1           0        0.617710   -0.423278    1.948154
     15          7           0        0.419526   -1.356843    0.076550
     16          6           0       -0.852030   -1.216334   -0.134835
     17          1           0       -2.074972    1.988369    0.379172
     18          1           0        0.000057    2.705618    0.771428
     19          1           0        1.155756    0.427796   -1.617451
     20          1           0        1.820532    2.045118   -1.348830
     21          1           0        3.637303    0.393279   -1.917569
     22          1           0        3.856610    1.111190   -0.326721
     23          1           0        2.711359   -1.667405   -0.917831
     24          1           0        4.271147   -1.309778   -0.174717
     25          1           0        2.512493   -1.986807    1.497209
     26          1           0        3.113738   -0.354444    1.817322
     27          1           0       -1.333869   -2.025855   -0.681456
 ---------------------------------------------------------------------

 Alpha  occ. eigenvalues --  -20.59275 -20.58906 -15.84826 -15.64352 -15.55798
 Alpha  occ. eigenvalues --  -11.35109 -11.29550 -11.29509 -11.28789 -11.27032
 Alpha  occ. eigenvalues --  -11.23821 -11.23226 -11.22598 -11.22059  -1.57191
 Alpha  occ. eigenvalues --   -1.36742  -1.31133  -1.22782  -1.14689  -1.09783
 Alpha  occ. eigenvalues --   -1.02772  -1.01305  -0.94413  -0.89635  -0.85570
 Alpha  occ. eigenvalues --   -0.82457  -0.78782  -0.77317  -0.75205  -0.72145
 Alpha  occ. eigenvalues --   -0.69612  -0.69538  -0.67883  -0.64593  -0.63908
 Alpha  occ. eigenvalues --   -0.62383  -0.60017  -0.57808  -0.56885  -0.55161
 Alpha  occ. eigenvalues --   -0.54602  -0.50580  -0.50303  -0.48717  -0.48106
 Alpha  occ. eigenvalues --   -0.47330  -0.46299  -0.45784  -0.43763  -0.41850
 Alpha  occ. eigenvalues --   -0.39490  -0.33585
 Alpha virt. eigenvalues --    0.07450   0.11407   0.17176   0.22035   0.24397
 Alpha virt. eigenvalues --    0.25870   0.26689   0.28316   0.29201   0.29384
 Alpha virt. eigenvalues --    0.30906   0.32031   0.32126   0.32809   0.33799

 Mulliken charges:
               1
     1  O   -0.467553
     2  N    0.499555
     3  O   -0.502677
     4  C    0.001323
     5  C    0.188015
     6  N   -0.772536
     7  C    0.051178
     8  H    0.181855
     9  C   -0.303674
    10  C   -0.327042
    11  C   -0.322801
    12  C   -0.305731
    13  C   -0.034161
    14  H    0.191354
    15  N   -0.521593
    16  C    0.103899
    17  H    0.295682
    18  H    0.405929
    19  H    0.191674
    20  H    0.161526
    21  H    0.175088
    22  H    0.149592
    23  H    0.200534
    24  H    0.164689
    25  H    0.186982
    26  H    0.149131
    27  H    0.259761
 Sum of Mulliken charges =  -0.00000

 Dipole moment (field-independent basis, Debye):
    X=              5.2828    Y=              4.5886    Z=              2.1490  Tot=              7.3199
 Quadrupole moment (field-independent basis, Debye-Ang):
   XX=           -104.7159   YY=            -78.9131   ZZ=            -82.6558
   XY=             -0.2377   XZ=             -4.3008   YZ=              1.7601

 Normal termination of Gaussian 16 at Sat Jul  1 00:24:43 2023.
