 Gaussian 09, Revision A.01,
 Gaussian 09:  EM64L-G09RevA.01  8-May-2009

 ------------------------------
 #HF/6-31G* Opt=Z-matrix NoSymm
 ------------------------------

 -------------------------------
 water interaction with atom N10
 -------------------------------
 Symbolic Z-matrix:
 Charge =  0 Multiplicity = 1

 SCF Done:  E(RHF) =  -1154.67609727     A.U. after   15 cycles
 SCF Done:  E(RHF) =  -1154.67610592     A.U. after    8 cycles
 SCF Done:  E(RHF) =  -1154.67611652     A.U. after    9 cycles
 SCF Done:  E(RHF) =  -1154.67611906     A.U. after    9 cycles
 Optimization completed.
    -- Stationary point found.

                         Z-Matrix orientation:
 ---------------------------------------------------------------------
 Center     Atomic      Atomic             Coordinates (Angstroms)
 Number     Number       Type             X           Y           Z
 ---------------------------------------------------------------------
      1          9           0       -1.969300    2.053680    0.000070
      2          6           0       -1.222250    0.944230    0.000030
      3          6           0        0.140030    1.057400   -0.000020
      4          6           0        0.927950   -0.123640   -0.000080
      5          6           0        2.414660   -0.018650   -0.000010
      6          9           0        3.007080   -1.234610   -0.000560
      7          9           0        2.858290    0.654480   -1.086020
      8          9           0        2.858270    0.653500    1.086650
      9          6           0        0.306540   -1.341490   -0.000090
     10          7           0       -1.054170   -1.389970   -0.000060
     11          6           0       -1.930500   -0.312100    0.000000
     12         16           0       -3.570980   -0.506610    0.000030
     13          1           0        0.596860    2.043100   -0.000020
     14          1           0        0.831760   -2.288990   -0.000150
     15          1           0       -1.521480   -2.296390   -0.000090
     16          8           0       -1.054101   -1.390102    3.225371
     17          1           0       -0.538241   -0.836163    3.811265
     18          1           0       -1.569936   -1.944089    3.811242
 ---------------------------------------------------------------------

 Alpha  occ. eigenvalues --  -91.89118 -26.36030 -26.35160 -26.35091 -26.32381
 Alpha  occ. eigenvalues --  -20.57485 -15.67208 -11.53286 -11.36513 -11.35929
 Alpha  occ. eigenvalues --  -11.34865 -11.30063 -11.29010  -8.90219  -6.58553
 Alpha  occ. eigenvalues --   -6.58271  -6.58152  -1.73303  -1.64306  -1.63656
 Alpha  occ. eigenvalues --   -1.63644  -1.35602  -1.33990  -1.15878  -1.10728
 Alpha  occ. eigenvalues --   -1.01871  -0.95997  -0.91458  -0.86971  -0.83780
 Alpha  occ. eigenvalues --   -0.82859  -0.82556  -0.75793  -0.74729  -0.72652
 Alpha  occ. eigenvalues --   -0.72107  -0.71490  -0.70720  -0.70256  -0.69061
 Alpha  occ. eigenvalues --   -0.66753  -0.66700  -0.65336  -0.62941  -0.61371
 Alpha  occ. eigenvalues --   -0.59599  -0.58243  -0.58176  -0.51340  -0.51254
 Alpha  occ. eigenvalues --   -0.45232  -0.41826  -0.32863  -0.29729
 Alpha virt. eigenvalues --    0.05855   0.10114   0.18609   0.20227   0.25466
 Alpha virt. eigenvalues --    0.26381   0.27667   0.27829   0.29385   0.31113
 Alpha virt. eigenvalues --    0.34843   0.36673   0.40346   0.41663   0.43768

 Mulliken atomic charges:
              1
     1  F   -0.363477
     2  C    0.401203
     3  C   -0.176272
     4  C   -0.307808
     5  C    1.203888
     6  F   -0.384990
     7  F   -0.374839
     8  F   -0.376308
     9  C    0.193692
    10  N   -0.768702
    11  C    0.207536
    12  S   -0.253524
    13  H    0.274028
    14  H    0.282950
    15  H    0.438524
    16  O   -0.874436
    17  H    0.438047
    18  H    0.440487
 Sum of Mulliken atomic charges =   0.00000

 Dipole moment (field-independent basis, Debye):
    X=              3.5321    Y=             -2.8767    Z=              2.5133  Tot=              5.2026
 Quadrupole moment (field-independent basis, Debye-Ang):
   XX=           -106.0233   YY=            -70.3356   ZZ=            -65.9012
   XY=              3.5942   XZ=             -2.8191   YZ=             -3.3963

 Normal termination of Gaussian 09 at Fri Sep 24 08:17:17 2021.
