 Gaussian 09, Revision A.01,
 Gaussian 09:  EM64L-G09RevA.01  8-May-2009

 ------------------------------
 #HF/6-31G* Opt=Z-matrix NoSymm
 ------------------------------

 -------------------------------
 water interaction with atom N10
 -------------------------------
 Symbolic Z-matrix:
 Charge =  0 Multiplicity = 1

 SCF Done:  E(RHF) =  -1154.67089533     A.U. after   15 cycles
 SCF Done:  E(RHF) =  -1154.67093120     A.U. after    9 cycles
 SCF Done:  E(RHF) =  -1154.67099907     A.U. after    9 cycles
 SCF Done:  E(RHF) =  -1154.67112142     A.U. after   10 cycles
 SCF Done:  E(RHF) =  -1154.67132744     A.U. after   10 cycles
 SCF Done:  E(RHF) =  -1154.67166419     A.U. after   10 cycles
 SCF Done:  E(RHF) =  -1154.67216298     A.U. after   10 cycles
 SCF Done:  E(RHF) =  -1154.67252285     A.U. after   10 cycles
 SCF Done:  E(RHF) =  -1154.67277104     A.U. after    9 cycles
 SCF Done:  E(RHF) =  -1154.67286864     A.U. after    9 cycles
 SCF Done:  E(RHF) =  -1154.67289341     A.U. after    8 cycles
 Optimization completed on the basis of negligible forces.
    -- Stationary point found.

                         Z-Matrix orientation:
 ---------------------------------------------------------------------
 Center     Atomic      Atomic             Coordinates (Angstroms)
 Number     Number       Type             X           Y           Z
 ---------------------------------------------------------------------
      1          9           0       -1.969300    2.053680    0.000070
      2          6           0       -1.222250    0.944230    0.000030
      3          6           0        0.140030    1.057400   -0.000020
      4          6           0        0.927950   -0.123640   -0.000080
      5          6           0        2.414660   -0.018650   -0.000010
      6          9           0        3.007080   -1.234610   -0.000560
      7          9           0        2.858290    0.654480   -1.086020
      8          9           0        2.858270    0.653500    1.086650
      9          6           0        0.306540   -1.341490   -0.000090
     10          7           0       -1.054170   -1.389970   -0.000060
     11          6           0       -1.930500   -0.312100    0.000000
     12         16           0       -3.570980   -0.506610    0.000030
     13          1           0        0.596860    2.043100   -0.000020
     14          1           0        0.831760   -2.288990   -0.000150
     15          1           0       -1.521480   -2.296390   -0.000090
     16          1           0       -1.053696   -1.390877   22.161875
     17         -1           0       -2.053061   -1.426483   22.161895
     18         -1           0       -2.053040   -1.426524   23.161895
     19          8           0       -1.053675   -1.390916   23.119075
     20          1           0       -0.127630   -1.357933   23.359044
 ---------------------------------------------------------------------

 Alpha  occ. eigenvalues --  -91.90369 -26.36725 -26.35778 -26.35775 -26.33345
 Alpha  occ. eigenvalues --  -20.56044 -15.68632 -11.54060 -11.37736 -11.37074
 Alpha  occ. eigenvalues --  -11.36029 -11.31126 -11.30224  -8.91459  -6.59788
 Alpha  occ. eigenvalues --   -6.59511  -6.59386  -1.73965  -1.64973  -1.64602
 Alpha  occ. eigenvalues --   -1.64276  -1.35448  -1.34187  -1.17016  -1.11961
 Alpha  occ. eigenvalues --   -1.02873  -0.97058  -0.92484  -0.88143  -0.84726
 Alpha  occ. eigenvalues --   -0.83577  -0.83202  -0.76874  -0.75758  -0.73719
 Alpha  occ. eigenvalues --   -0.72140  -0.71475  -0.71207  -0.70701  -0.70138
 Alpha  occ. eigenvalues --   -0.67386  -0.67379  -0.65963  -0.63891  -0.62417
 Alpha  occ. eigenvalues --   -0.60650  -0.59232  -0.57107  -0.52482  -0.49797
 Alpha  occ. eigenvalues --   -0.46448  -0.43170  -0.34021  -0.30886
 Alpha virt. eigenvalues --    0.04581   0.08853   0.17767   0.21068   0.24592
 Alpha virt. eigenvalues --    0.25295   0.26596   0.26665   0.30156   0.30410
 Alpha virt. eigenvalues --    0.33870   0.35392   0.39417   0.40818   0.42693

 Mulliken atomic charges:
              1
     1  F   -0.360334
     2  C    0.405620
     3  C   -0.173118
     4  C   -0.300538
     5  C    1.207179
     6  F   -0.383794
     7  F   -0.373280
     8  F   -0.373344
     9  C    0.172237
    10  N   -0.779107
    11  C    0.182046
    12  S   -0.232782
    13  H    0.280214
    14  H    0.287598
    15  H    0.441404
    16  H    0.433166
    17  O   -0.866308
    18  H    0.433141
 Sum of Mulliken atomic charges =   0.00000

 Dipole moment (field-independent basis, Debye):
    X=              5.3164    Y=             -2.5661    Z=             -1.3636  Tot=              6.0587
 Quadrupole moment (field-independent basis, Debye-Ang):
   XX=           -107.6642   YY=            -72.1082   ZZ=           -142.8942
   XY=             -0.4678   XZ=             42.7198   YZ=              3.3687

 Normal termination of Gaussian 09 at Sun Jul  7 13:18:22 2024.
