 Gaussian 09, Revision A.01,
 Gaussian 09:  EM64L-G09RevA.01  8-May-2009

 ------------------------------
 #HF/6-31G* Opt=Z-matrix NoSymm
 ------------------------------

 -------------------------------
 water interaction with atom N10
 -------------------------------
 Symbolic Z-matrix:
 Charge =  0 Multiplicity = 1

 SCF Done:  E(RHF) =  -1154.67631273     A.U. after   15 cycles
 SCF Done:  E(RHF) =  -1154.67631935     A.U. after    9 cycles
 SCF Done:  E(RHF) =  -1154.67632856     A.U. after    9 cycles
 SCF Done:  E(RHF) =  -1154.67633199     A.U. after    9 cycles
 Optimization completed.
    -- Stationary point found.

                         Z-Matrix orientation:
 ---------------------------------------------------------------------
 Center     Atomic      Atomic             Coordinates (Angstroms)
 Number     Number       Type             X           Y           Z
 ---------------------------------------------------------------------
      1          9           0       -1.969300    2.053680    0.000070
      2          6           0       -1.222250    0.944230    0.000030
      3          6           0        0.140030    1.057400   -0.000020
      4          6           0        0.927950   -0.123640   -0.000080
      5          6           0        2.414660   -0.018650   -0.000010
      6          9           0        3.007080   -1.234610   -0.000560
      7          9           0        2.858290    0.654480   -1.086020
      8          9           0        2.858270    0.653500    1.086650
      9          6           0        0.306540   -1.341490   -0.000090
     10          7           0       -1.054170   -1.389970   -0.000060
     11          6           0       -1.930500   -0.312100    0.000000
     12         16           0       -3.570980   -0.506610    0.000030
     13          1           0        0.596860    2.043100   -0.000020
     14          1           0        0.831760   -2.288990   -0.000150
     15          1           0       -1.521480   -2.296390   -0.000090
     16          8           0       -1.054101   -1.390101    3.209307
     17          1           0       -1.608052   -0.874278    3.795223
     18          1           0       -0.500126   -1.905973    3.795157
 ---------------------------------------------------------------------

 Alpha  occ. eigenvalues --  -91.89150 -26.36032 -26.35068 -26.35065 -26.32409
 Alpha  occ. eigenvalues --  -20.57472 -15.67210 -11.53251 -11.36528 -11.35914
 Alpha  occ. eigenvalues --  -11.34857 -11.30063 -11.29009  -8.90252  -6.58587
 Alpha  occ. eigenvalues --   -6.58305  -6.58184  -1.73266  -1.64286  -1.63689
 Alpha  occ. eigenvalues --   -1.63581  -1.35592  -1.33980  -1.15850  -1.10741
 Alpha  occ. eigenvalues --   -1.01865  -0.95991  -0.91448  -0.86984  -0.83766
 Alpha  occ. eigenvalues --   -0.82834  -0.82509  -0.75792  -0.74725  -0.72664
 Alpha  occ. eigenvalues --   -0.72090  -0.71449  -0.70697  -0.70291  -0.69054
 Alpha  occ. eigenvalues --   -0.66699  -0.66678  -0.65285  -0.62945  -0.61391
 Alpha  occ. eigenvalues --   -0.59602  -0.58235  -0.58145  -0.51366  -0.51240
 Alpha  occ. eigenvalues --   -0.45163  -0.41885  -0.32890  -0.29761
 Alpha virt. eigenvalues --    0.05845   0.10085   0.18628   0.20235   0.25519
 Alpha virt. eigenvalues --    0.26270   0.27636   0.27794   0.29458   0.31145
 Alpha virt. eigenvalues --    0.34865   0.36690   0.40348   0.41701   0.43790

 Mulliken atomic charges:
              1
     1  F   -0.363895
     2  C    0.399623
     3  C   -0.171622
     4  C   -0.301195
     5  C    1.202653
     6  F   -0.385602
     7  F   -0.374969
     8  F   -0.375050
     9  C    0.190016
    10  N   -0.766175
    11  C    0.202673
    12  S   -0.255696
    13  H    0.274385
    14  H    0.281134
    15  H    0.439944
    16  O   -0.875254
    17  H    0.444715
    18  H    0.434314
 Sum of Mulliken atomic charges =   0.00000

 Dipole moment (field-independent basis, Debye):
    X=              3.5963    Y=             -2.8305    Z=              2.5073  Tot=              5.2184
 Quadrupole moment (field-independent basis, Debye-Ang):
   XX=           -105.9658   YY=            -70.6306   ZZ=            -65.9889
   XY=              0.5866   XZ=             -2.7667   YZ=             -3.2812

 Normal termination of Gaussian 09 at Fri Sep 24 08:19:26 2021.
