 Gaussian 09, Revision A.01,
 Gaussian 09:  EM64L-G09RevA.01  8-May-2009

 ------------------------------
 #HF/6-31G* Opt=Z-matrix NoSymm
 ------------------------------

 -------------------------------
 water interaction with atom N10
 -------------------------------
 Symbolic Z-matrix:
 Charge =  0 Multiplicity = 1

 SCF Done:  E(RHF) =  -1154.66310809     A.U. after   16 cycles
 SCF Done:  E(RHF) =  -1154.67033443     A.U. after   12 cycles
 SCF Done:  E(RHF) =  -1154.67585749     A.U. after   12 cycles
 SCF Done:  E(RHF) =  -1154.67640343     A.U. after   12 cycles
 SCF Done:  E(RHF) =  -1154.67679662     A.U. after   11 cycles
 SCF Done:  E(RHF) =  -1154.67679680     A.U. after    7 cycles
 Optimization completed.
    -- Stationary point found.

                         Z-Matrix orientation:
 ---------------------------------------------------------------------
 Center     Atomic      Atomic             Coordinates (Angstroms)
 Number     Number       Type             X           Y           Z
 ---------------------------------------------------------------------
      1          9           0       -1.969300    2.053680    0.000070
      2          6           0       -1.222250    0.944230    0.000030
      3          6           0        0.140030    1.057400   -0.000020
      4          6           0        0.927950   -0.123640   -0.000080
      5          6           0        2.414660   -0.018650   -0.000010
      6          9           0        3.007080   -1.234610   -0.000560
      7          9           0        2.858290    0.654480   -1.086020
      8          9           0        2.858270    0.653500    1.086650
      9          6           0        0.306540   -1.341490   -0.000090
     10          7           0       -1.054170   -1.389970   -0.000060
     11          6           0       -1.930500   -0.312100    0.000000
     12         16           0       -3.570980   -0.506610    0.000030
     13          1           0        0.596860    2.043100   -0.000020
     14          1           0        0.831760   -2.288990   -0.000150
     15          1           0       -1.521480   -2.296390   -0.000090
     16          8           0       -1.054102   -1.390099    3.162447
     17          1           0       -0.297619   -1.363172    3.748314
     18          1           0       -1.810560   -1.417075    3.748344
 ---------------------------------------------------------------------

 Alpha  occ. eigenvalues --  -91.89151 -26.36095 -26.35186 -26.35119 -26.32366
 Alpha  occ. eigenvalues --  -20.57518 -15.67190 -11.53320 -11.36528 -11.35909
 Alpha  occ. eigenvalues --  -11.34858 -11.30040 -11.29043  -8.90253  -6.58588
 Alpha  occ. eigenvalues --   -6.58306  -6.58187  -1.73344  -1.64358  -1.63669
 Alpha  occ. eigenvalues --   -1.63640  -1.35639  -1.33963  -1.15872  -1.10725
 Alpha  occ. eigenvalues --   -1.01893  -0.96015  -0.91463  -0.86983  -0.83789
 Alpha  occ. eigenvalues --   -0.82897  -0.82591  -0.75799  -0.74725  -0.72655
 Alpha  occ. eigenvalues --   -0.72116  -0.71527  -0.70750  -0.70237  -0.69045
 Alpha  occ. eigenvalues --   -0.66787  -0.66743  -0.65371  -0.62940  -0.61459
 Alpha  occ. eigenvalues --   -0.59608  -0.58251  -0.58116  -0.51373  -0.51305
 Alpha  occ. eigenvalues --   -0.45198  -0.41838  -0.32902  -0.29782
 Alpha virt. eigenvalues --    0.05865   0.10078   0.18658   0.20231   0.25521
 Alpha virt. eigenvalues --    0.26308   0.27646   0.27817   0.29455   0.31120
 Alpha virt. eigenvalues --    0.34861   0.36692   0.40326   0.41632   0.43754

 Mulliken atomic charges:
              1
     1  F   -0.363644
     2  C    0.403215
     3  C   -0.173132
     4  C   -0.304886
     5  C    1.202821
     6  F   -0.385334
     7  F   -0.374671
     8  F   -0.375912
     9  C    0.188963
    10  N   -0.765099
    11  C    0.206440
    12  S   -0.258908
    13  H    0.274214
    14  H    0.282173
    15  H    0.439657
    16  O   -0.876085
    17  H    0.435321
    18  H    0.444865
 Sum of Mulliken atomic charges =   0.00000

 Dipole moment (field-independent basis, Debye):
    X=              3.5692    Y=             -2.8364    Z=              2.5063  Tot=              5.2025
 Quadrupole moment (field-independent basis, Debye-Ang):
   XX=           -104.6158   YY=            -72.0036   ZZ=            -66.1952
   XY=              2.1915   XZ=             -2.8426   YZ=             -3.3546

 Normal termination of Gaussian 09 at Fri Sep 24 08:16:13 2021.
