 Gaussian 09, Revision A.01,
 Gaussian 09:  EM64L-G09RevA.01  8-May-2009

 ------------------------------
 #HF/6-31G* Opt=Z-matrix NoSymm
 ------------------------------

 -------------------------------
 water interaction with atom N10
 -------------------------------
 Symbolic Z-matrix:
 Charge =  0 Multiplicity = 1

 SCF Done:  E(RHF) =  -1154.67568357     A.U. after   15 cycles
 SCF Done:  E(RHF) =  -1154.67568752     A.U. after    8 cycles
 SCF Done:  E(RHF) =  -1154.67569266     A.U. after    9 cycles
 SCF Done:  E(RHF) =  -1154.67569435     A.U. after    9 cycles
 Optimization completed.
    -- Stationary point found.

                         Z-Matrix orientation:
 ---------------------------------------------------------------------
 Center     Atomic      Atomic             Coordinates (Angstroms)
 Number     Number       Type             X           Y           Z
 ---------------------------------------------------------------------
      1          9           0       -1.969300    2.053680    0.000070
      2          6           0       -1.222250    0.944230    0.000030
      3          6           0        0.140030    1.057400   -0.000020
      4          6           0        0.927950   -0.123640   -0.000080
      5          6           0        2.414660   -0.018650   -0.000010
      6          9           0        3.007080   -1.234610   -0.000560
      7          9           0        2.858290    0.654480   -1.086020
      8          9           0        2.858270    0.653500    1.086650
      9          6           0        0.306540   -1.341490   -0.000090
     10          7           0       -1.054170   -1.389970   -0.000060
     11          6           0       -1.930500   -0.312100    0.000000
     12         16           0       -3.570980   -0.506610    0.000030
     13          1           0        0.596860    2.043100   -0.000020
     14          1           0        0.831760   -2.288990   -0.000150
     15          1           0       -1.521480   -2.296390   -0.000090
     16          8           0       -1.054100   -1.390104    3.272924
     17          1           0       -1.081039   -0.633658    3.858837
     18          1           0       -1.027136   -2.146598    3.858774
 ---------------------------------------------------------------------

 Alpha  occ. eigenvalues --  -91.89122 -26.35973 -26.35045 -26.35043 -26.32425
 Alpha  occ. eigenvalues --  -20.57436 -15.67228 -11.53222 -11.36517 -11.35936
 Alpha  occ. eigenvalues --  -11.34865 -11.30086 -11.28983  -8.90222  -6.58556
 Alpha  occ. eigenvalues --   -6.58275  -6.58154  -1.73230  -1.64240  -1.63705
 Alpha  occ. eigenvalues --   -1.63560  -1.35553  -1.34007  -1.15860  -1.10745
 Alpha  occ. eigenvalues --   -1.01847  -0.95976  -0.91446  -0.86975  -0.83760
 Alpha  occ. eigenvalues --   -0.82800  -0.82478  -0.75789  -0.74730  -0.72663
 Alpha  occ. eigenvalues --   -0.72077  -0.71418  -0.70670  -0.70310  -0.69071
 Alpha  occ. eigenvalues --   -0.66668  -0.66642  -0.65255  -0.62948  -0.61316
 Alpha  occ. eigenvalues --   -0.59596  -0.58234  -0.58189  -0.51339  -0.51186
 Alpha  occ. eigenvalues --   -0.45202  -0.41873  -0.32857  -0.29714
 Alpha virt. eigenvalues --    0.05835   0.10115   0.18594   0.20224   0.25465
 Alpha virt. eigenvalues --    0.26347   0.27655   0.27805   0.29381   0.31136
 Alpha virt. eigenvalues --    0.34844   0.36665   0.40365   0.41727   0.43799

 Mulliken atomic charges:
              1
     1  F   -0.363725
     2  C    0.397813
     3  C   -0.174668
     4  C   -0.304008
     5  C    1.203679
     6  F   -0.385249
     7  F   -0.375115
     8  F   -0.375416
     9  C    0.194142
    10  N   -0.769477
    11  C    0.203907
    12  S   -0.250613
    13  H    0.274202
    14  H    0.281988
    15  H    0.438854
    16  O   -0.873726
    17  H    0.441245
    18  H    0.436167
 Sum of Mulliken atomic charges =   0.00000

 Dipole moment (field-independent basis, Debye):
    X=              3.5595    Y=             -2.8680    Z=              2.5119  Tot=              5.2159
 Quadrupole moment (field-independent basis, Debye-Ang):
   XX=           -107.3805   YY=            -68.9617   ZZ=            -65.6992
   XY=              1.9871   XZ=             -2.7431   YZ=             -3.3221

 Normal termination of Gaussian 09 at Fri Sep 24 08:18:24 2021.
