 Gaussian 09, Revision A.01,
 Gaussian 09:  EM64L-G09RevA.01  8-May-2009

 ------------------------------
 #HF/6-31G* Opt=Z-matrix NoSymm
 ------------------------------

 -------------------------------
 water interaction with atom N10
 -------------------------------
 Symbolic Z-matrix:
 Charge =  0 Multiplicity = 1

 SCF Done:  E(RHF) =  -1154.67248277     A.U. after   15 cycles
 SCF Done:  E(RHF) =  -1154.67248609     A.U. after    6 cycles
 SCF Done:  E(RHF) =  -1154.67249271     A.U. after    7 cycles
 SCF Done:  E(RHF) =  -1154.67250583     A.U. after    8 cycles
 SCF Done:  E(RHF) =  -1154.67253176     A.U. after    9 cycles
 SCF Done:  E(RHF) =  -1154.67258267     A.U. after   10 cycles
 SCF Done:  E(RHF) =  -1154.67267631     A.U. after   10 cycles
 SCF Done:  E(RHF) =  -1154.67280539     A.U. after   10 cycles
 SCF Done:  E(RHF) =  -1154.67289378     A.U. after    9 cycles
 SCF Done:  E(RHF) =  -1154.67292486     A.U. after    9 cycles
 Optimization completed on the basis of negligible forces.
    -- Stationary point found.

                         Z-Matrix orientation:
 ---------------------------------------------------------------------
 Center     Atomic      Atomic             Coordinates (Angstroms)
 Number     Number       Type             X           Y           Z
 ---------------------------------------------------------------------
      1          9           0       -1.969300    2.053680    0.000070
      2          6           0       -1.222250    0.944230    0.000030
      3          6           0        0.140030    1.057400   -0.000020
      4          6           0        0.927950   -0.123640   -0.000080
      5          6           0        2.414660   -0.018650   -0.000010
      6          9           0        3.007080   -1.234610   -0.000560
      7          9           0        2.858290    0.654480   -1.086020
      8          9           0        2.858270    0.653500    1.086650
      9          6           0        0.306540   -1.341490   -0.000090
     10          7           0       -1.054170   -1.389970   -0.000060
     11          6           0       -1.930500   -0.312100    0.000000
     12         16           0       -3.570980   -0.506610    0.000030
     13          1           0        0.596860    2.043100   -0.000020
     14          1           0        0.831760   -2.288990   -0.000150
     15          1           0       -1.521480   -2.296390   -0.000090
     16          1           0       -1.053949   -1.390393   10.332613
     17         -1           0       -2.053315   -1.425999   10.332633
     18         -1           0       -2.053293   -1.426040   11.332633
     19          8           0       -1.053928   -1.390432   11.289813
     20          1           0       -1.086917   -0.464402   11.529839
 ---------------------------------------------------------------------

 Alpha  occ. eigenvalues --  -91.90472 -26.36807 -26.35875 -26.35858 -26.33455
 Alpha  occ. eigenvalues --  -20.56083 -15.68732 -11.54150 -11.37839 -11.37179
 Alpha  occ. eigenvalues --  -11.36127 -11.31232 -11.30323  -8.91562  -6.59891
 Alpha  occ. eigenvalues --   -6.59613  -6.59488  -1.74052  -1.65057  -1.64712
 Alpha  occ. eigenvalues --   -1.64366  -1.35549  -1.34226  -1.17117  -1.12064
 Alpha  occ. eigenvalues --   -1.02970  -0.97156  -0.92583  -0.88243  -0.84822
 Alpha  occ. eigenvalues --   -0.83664  -0.83290  -0.76974  -0.75858  -0.73819
 Alpha  occ. eigenvalues --   -0.72228  -0.71564  -0.71317  -0.70741  -0.70240
 Alpha  occ. eigenvalues --   -0.67476  -0.67465  -0.66051  -0.63994  -0.62519
 Alpha  occ. eigenvalues --   -0.60749  -0.59330  -0.57147  -0.52583  -0.49836
 Alpha  occ. eigenvalues --   -0.46551  -0.43275  -0.34123  -0.30989
 Alpha virt. eigenvalues --    0.04476   0.08751   0.17677   0.21032   0.24490
 Alpha virt. eigenvalues --    0.25205   0.26501   0.26562   0.30057   0.30371
 Alpha virt. eigenvalues --    0.33768   0.35294   0.39322   0.40726   0.42595

 Mulliken atomic charges:
              1
     1  F   -0.360380
     2  C    0.405425
     3  C   -0.173257
     4  C   -0.300716
     5  C    1.207316
     6  F   -0.383648
     7  F   -0.373144
     8  F   -0.373511
     9  C    0.172154
    10  N   -0.779111
    11  C    0.181800
    12  S   -0.232641
    13  H    0.280217
    14  H    0.287924
    15  H    0.441572
    16  H    0.432953
    17  O   -0.866407
    18  H    0.433454
 Sum of Mulliken atomic charges =   0.00000

 Dipole moment (field-independent basis, Debye):
    X=              3.4982    Y=             -0.8767    Z=             -1.3730  Tot=              3.8589
 Quadrupole moment (field-independent basis, Debye-Ang):
   XX=           -106.0690   YY=            -74.5581   ZZ=           -110.6464
   XY=              0.1192   XZ=              0.6978   YZ=             22.4020

 Normal termination of Gaussian 09 at Sun Jul  7 13:19:16 2024.
