 Gaussian 16, Revision C.02,
 Gaussian 16:  ES64L-G16RevC.02  7-Dec-2021

 ---------------------------------------------------------
 #MP2/6-31G* SCF=Tight Opt=(ModRedun, MaxCycle=20 ) NoSymm
 ---------------------------------------------------------

 --------
 MolName:
 --------
 Symbolic Z-matrix:
 Charge =  0 Multiplicity = 1

 SCF Done:  E(RHF) =  -661.277835925     A.U. after   16 cycles
 E2 =    -0.2037967828D+01 EUMP2 =    -0.66331580375354D+03
 SCF Done:  E(RHF) =  -661.295676907     A.U. after   15 cycles
 E2 =    -0.2033647822D+01 EUMP2 =    -0.66332932472912D+03
 SCF Done:  E(RHF) =  -661.289784189     A.U. after   17 cycles
 E2 =    -0.2035504927D+01 EUMP2 =    -0.66332528911604D+03
 SCF Done:  E(RHF) =  -661.290351862     A.U. after   15 cycles
 E2 =    -0.2036714309D+01 EUMP2 =    -0.66332706617105D+03
 SCF Done:  E(RHF) =  -661.296247446     A.U. after   11 cycles
 E2 =    -0.2034643020D+01 EUMP2 =    -0.66333089046608D+03
 SCF Done:  E(RHF) =  -661.295960649     A.U. after   13 cycles
 E2 =    -0.2035488264D+01 EUMP2 =    -0.66333144891202D+03
 SCF Done:  E(RHF) =  -661.296104503     A.U. after   12 cycles
 E2 =    -0.2035397572D+01 EUMP2 =    -0.66333150207594D+03
 SCF Done:  E(RHF) =  -661.296374309     A.U. after   11 cycles
 E2 =    -0.2035136376D+01 EUMP2 =    -0.66333151068507D+03
 SCF Done:  E(RHF) =  -661.296380751     A.U. after   10 cycles
 E2 =    -0.2035131018D+01 EUMP2 =    -0.66333151176950D+03
 Optimization completed.
    -- Stationary point found.

                          Input orientation:
 ---------------------------------------------------------------------
 Center     Atomic      Atomic             Coordinates (Angstroms)
 Number     Number       Type             X           Y           Z
 ---------------------------------------------------------------------
      1          8           0       -3.508268   -1.374530   -0.387831
      2          7           0       -3.116849   -0.240254   -0.050201
      3          8           0       -3.886598    0.704461    0.212691
      4          6           0       -1.681421   -0.041389    0.075167
      5          6           0       -1.294537    1.271622    0.180621
      6          7           0       -0.061480    1.745476    0.416764
      7          6           0        1.197463    1.011301    0.384050
      8          1           0        1.842500    1.528426    1.110699
      9          6           0        1.906150    1.046000   -0.969797
     10          6           0        3.306704    0.442977   -0.813189
     11          6           0        3.261642   -0.962908   -0.209270
     12          6           0        2.463642   -0.995494    1.095782
     13          6           0        1.051841   -0.444584    0.866794
     14          1           0        0.476204   -0.442679    1.805991
     15          7           0        0.406948   -1.328544   -0.105521
     16          6           0       -0.840719   -1.135653   -0.386752
     17          1           0       -2.088470    2.012738    0.229929
     18          1           0        0.022641    2.756151    0.436369
     19          1           0        1.316126    0.478241   -1.697452
     20          1           0        1.971308    2.080255   -1.331708
     21          1           0        3.812861    0.422825   -1.785139
     22          1           0        3.902111    1.101177   -0.164601
     23          1           0        2.788061   -1.650155   -0.917216
     24          1           0        4.281596   -1.325617   -0.035080
     25          1           0        2.380613   -2.023418    1.463902
     26          1           0        2.969964   -0.407987    1.874039
     27          1           0       -1.318034   -1.864448   -1.041052
 ---------------------------------------------------------------------

 Alpha  occ. eigenvalues --  -20.59174 -20.58863 -15.84606 -15.64280 -15.56138
 Alpha  occ. eigenvalues --  -11.35158 -11.29630 -11.29592 -11.28542 -11.27121
 Alpha  occ. eigenvalues --  -11.23944 -11.23312 -11.22706 -11.22131  -1.57035
 Alpha  occ. eigenvalues --   -1.36644  -1.31077  -1.23099  -1.14731  -1.09851
 Alpha  occ. eigenvalues --   -1.02818  -1.01358  -0.94383  -0.89592  -0.85725
 Alpha  occ. eigenvalues --   -0.82353  -0.78496  -0.77426  -0.75159  -0.72035
 Alpha  occ. eigenvalues --   -0.69573  -0.69519  -0.67854  -0.64876  -0.63719
 Alpha  occ. eigenvalues --   -0.62597  -0.60215  -0.57695  -0.57034  -0.55049
 Alpha  occ. eigenvalues --   -0.54701  -0.50874  -0.50062  -0.48599  -0.48107
 Alpha  occ. eigenvalues --   -0.47331  -0.46232  -0.46071  -0.43617  -0.41653
 Alpha  occ. eigenvalues --   -0.40044  -0.33883
 Alpha virt. eigenvalues --    0.07444   0.11955   0.17420   0.21727   0.23420
 Alpha virt. eigenvalues --    0.24790   0.27323   0.28161   0.28985   0.29551
 Alpha virt. eigenvalues --    0.30898   0.31669   0.32225   0.32771   0.33753

 Mulliken charges:
               1
     1  O   -0.468811
     2  N    0.487509
     3  O   -0.498709
     4  C    0.009103
     5  C    0.184816
     6  N   -0.761431
     7  C    0.049041
     8  H    0.183099
     9  C   -0.305131
    10  C   -0.326840
    11  C   -0.321277
    12  C   -0.307078
    13  C   -0.036322
    14  H    0.196095
    15  N   -0.507936
    16  C    0.102669
    17  H    0.291399
    18  H    0.402620
    19  H    0.189669
    20  H    0.157145
    21  H    0.174573
    22  H    0.150307
    23  H    0.199896
    24  H    0.164709
    25  H    0.187358
    26  H    0.151595
    27  H    0.251932
 Sum of Mulliken charges =  -0.00000

 Dipole moment (field-independent basis, Debye):
    X=              5.4952    Y=              4.8675    Z=              0.5647  Tot=              7.3627
 Quadrupole moment (field-independent basis, Debye-Ang):
   XX=           -106.1801   YY=            -78.7526   ZZ=            -82.2267
   XY=             -1.8385   XZ=              1.2064   YZ=             -0.0755

 Normal termination of Gaussian 16 at Sun Jul  2 19:24:32 2023.
