 Gaussian 16, Revision C.02,
 Gaussian 16:  ES64L-G16RevC.02  7-Dec-2021

 ---------------------------------------------------------
 #MP2/6-31G* SCF=Tight Opt=(ModRedun, MaxCycle=20 ) NoSymm
 ---------------------------------------------------------

 --------
 MolName:
 --------
 Symbolic Z-matrix:
 Charge =  0 Multiplicity = 1

 SCF Done:  E(RHF) =  -661.281606314     A.U. after   16 cycles
 E2 =    -0.2037411729D+01 EUMP2 =    -0.66331901804305D+03
 SCF Done:  E(RHF) =  -661.298762497     A.U. after   15 cycles
 E2 =    -0.2032861819D+01 EUMP2 =    -0.66333162431627D+03
 SCF Done:  E(RHF) =  -661.298390490     A.U. after   15 cycles
 E2 =    -0.2033822597D+01 EUMP2 =    -0.66333221308713D+03
 SCF Done:  E(RHF) =  -661.286044947     A.U. after   17 cycles
 E2 =    -0.2035620801D+01 EUMP2 =    -0.66332166574817D+03
 SCF Done:  E(RHF) =  -661.298932539     A.U. after   13 cycles
 E2 =    -0.2034820007D+01 EUMP2 =    -0.66333375254592D+03
 SCF Done:  E(RHF) =  -661.299031280     A.U. after   12 cycles
 E2 =    -0.2034826823D+01 EUMP2 =    -0.66333385810347D+03
 SCF Done:  E(RHF) =  -661.299351580     A.U. after   12 cycles
 E2 =    -0.2034555490D+01 EUMP2 =    -0.66333390707000D+03
 SCF Done:  E(RHF) =  -661.299461961     A.U. after   11 cycles
 E2 =    -0.2034454621D+01 EUMP2 =    -0.66333391658239D+03
 SCF Done:  E(RHF) =  -661.299478800     A.U. after   10 cycles
 E2 =    -0.2034438219D+01 EUMP2 =    -0.66333391701863D+03
 Optimization completed.
    -- Stationary point found.

                          Input orientation:
 ---------------------------------------------------------------------
 Center     Atomic      Atomic             Coordinates (Angstroms)
 Number     Number       Type             X           Y           Z
 ---------------------------------------------------------------------
      1          8           0       -3.507309   -1.382995   -0.388430
      2          7           0       -3.120672   -0.236697   -0.087696
      3          8           0       -3.894550    0.715032    0.133957
      4          6           0       -1.686481   -0.033163    0.034667
      5          6           0       -1.300080    1.268328    0.231220
      6          7           0       -0.058694    1.745756    0.402028
      7          6           0        1.202232    1.017310    0.371434
      8          1           0        1.848624    1.541394    1.091828
      9          6           0        1.908055    1.039556   -0.983679
     10          6           0        3.307576    0.434839   -0.823288
     11          6           0        3.261224   -0.965896   -0.207268
     12          6           0        2.464963   -0.986918    1.099204
     13          6           0        1.054276   -0.434333    0.866890
     14          1           0        0.478738   -0.422211    1.806033
     15          7           0        0.407902   -1.322190   -0.097316
     16          6           0       -0.839575   -1.135478   -0.385577
     17          1           0       -2.093931    2.004008    0.329344
     18          1           0        0.011445    2.749357    0.524963
     19          1           0        1.315824    0.466522   -1.705163
     20          1           0        1.973488    2.070497   -1.354039
     21          1           0        3.812405    0.405238   -1.795667
     22          1           0        3.905305    1.097448   -0.181303
     23          1           0        2.785521   -1.658272   -0.908802
     24          1           0        4.280831   -1.328869   -0.031607
     25          1           0        2.380677   -2.011716    1.475612
     26          1           0        2.973411   -0.394036    1.872034
     27          1           0       -1.308217   -1.877513   -1.031378
 ---------------------------------------------------------------------

 Alpha  occ. eigenvalues --  -20.59189 -20.58859 -15.84668 -15.64218 -15.56108
 Alpha  occ. eigenvalues --  -11.35081 -11.29631 -11.29555 -11.28570 -11.27115
 Alpha  occ. eigenvalues --  -11.23830 -11.23256 -11.22695 -11.22107  -1.57063
 Alpha  occ. eigenvalues --   -1.36661  -1.31043  -1.23073  -1.14714  -1.09831
 Alpha  occ. eigenvalues --   -1.02818  -1.01340  -0.94443  -0.89642  -0.85653
 Alpha  occ. eigenvalues --   -0.82404  -0.78581  -0.77409  -0.75194  -0.72029
 Alpha  occ. eigenvalues --   -0.69663  -0.69478  -0.67852  -0.64885  -0.63745
 Alpha  occ. eigenvalues --   -0.62488  -0.60241  -0.57716  -0.57021  -0.55060
 Alpha  occ. eigenvalues --   -0.54640  -0.50817  -0.50079  -0.48613  -0.48099
 Alpha  occ. eigenvalues --   -0.47346  -0.46182  -0.46055  -0.43646  -0.41654
 Alpha  occ. eigenvalues --   -0.39946  -0.33827
 Alpha virt. eigenvalues --    0.07512   0.11893   0.17365   0.21826   0.23882
 Alpha virt. eigenvalues --    0.25211   0.27281   0.28461   0.29038   0.29559
 Alpha virt. eigenvalues --    0.30802   0.31751   0.32109   0.32775   0.33842

 Mulliken charges:
               1
     1  O   -0.468000
     2  N    0.489893
     3  O   -0.502401
     4  C    0.001787
     5  C    0.191467
     6  N   -0.776465
     7  C    0.057196
     8  H    0.181347
     9  C   -0.303116
    10  C   -0.327444
    11  C   -0.321366
    12  C   -0.306906
    13  C   -0.036301
    14  H    0.193044
    15  N   -0.510114
    16  C    0.112072
    17  H    0.293908
    18  H    0.404654
    19  H    0.190044
    20  H    0.159092
    21  H    0.174613
    22  H    0.149771
    23  H    0.199913
    24  H    0.164603
    25  H    0.187174
    26  H    0.150938
    27  H    0.250598
 Sum of Mulliken charges =  -0.00000

 Dipole moment (field-independent basis, Debye):
    X=              5.4624    Y=              4.8636    Z=              0.9366  Tot=              7.3736
 Quadrupole moment (field-independent basis, Debye-Ang):
   XX=           -106.2213   YY=            -78.8801   ZZ=            -81.8894
   XY=             -1.8421   XZ=              0.4890   YZ=              0.8813

 Normal termination of Gaussian 16 at Sun Jul  2 19:04:39 2023.
