 Gaussian 16, Revision C.02,
 Gaussian 16:  ES64L-G16RevC.02  7-Dec-2021

 ---------------------------------------------------------
 #MP2/6-31G* SCF=Tight Opt=(ModRedun, MaxCycle=20 ) NoSymm
 ---------------------------------------------------------

 --------
 MolName:
 --------
 Symbolic Z-matrix:
 Charge =  0 Multiplicity = 1

 SCF Done:  E(RHF) =  -661.280993667     A.U. after   16 cycles
 E2 =    -0.2037284209D+01 EUMP2 =    -0.66331827787530D+03
 SCF Done:  E(RHF) =  -661.298214900     A.U. after   15 cycles
 E2 =    -0.2032648492D+01 EUMP2 =    -0.66333086339164D+03
 SCF Done:  E(RHF) =  -661.298223760     A.U. after   15 cycles
 E2 =    -0.2033543827D+01 EUMP2 =    -0.66333176758684D+03
 SCF Done:  E(RHF) =  -661.290583637     A.U. after   17 cycles
 E2 =    -0.2036194972D+01 EUMP2 =    -0.66332677860988D+03
 SCF Done:  E(RHF) =  -661.299079807     A.U. after   14 cycles
 E2 =    -0.2035081863D+01 EUMP2 =    -0.66333416166945D+03
 SCF Done:  E(RHF) =  -661.299853748     A.U. after   13 cycles
 E2 =    -0.2034722562D+01 EUMP2 =    -0.66333457631052D+03
 SCF Done:  E(RHF) =  -661.300425261     A.U. after   12 cycles
 E2 =    -0.2034214538D+01 EUMP2 =    -0.66333463979820D+03
 SCF Done:  E(RHF) =  -661.300428484     A.U. after   11 cycles
 E2 =    -0.2034219679D+01 EUMP2 =    -0.66333464816329D+03
 SCF Done:  E(RHF) =  -661.300376576     A.U. after   10 cycles
 E2 =    -0.2034272749D+01 EUMP2 =    -0.66333464932445D+03
 SCF Done:  E(RHF) =  -661.300356654     A.U. after    9 cycles
 E2 =    -0.2034292738D+01 EUMP2 =    -0.66333464939205D+03
 Optimization completed.
    -- Stationary point found.

                          Input orientation:
 ---------------------------------------------------------------------
 Center     Atomic      Atomic             Coordinates (Angstroms)
 Number     Number       Type             X           Y           Z
 ---------------------------------------------------------------------
      1          8           0       -3.506989   -1.390290   -0.371148
      2          7           0       -3.121107   -0.232212   -0.118594
      3          8           0       -3.895300    0.728878    0.055589
      4          6           0       -1.686634   -0.023866   -0.009725
      5          6           0       -1.301418    1.260616    0.275213
      6          7           0       -0.057189    1.750172    0.386329
      7          6           0        1.205612    1.023989    0.359315
      8          1           0        1.853361    1.552894    1.074753
      9          6           0        1.909132    1.035096   -0.996505
     10          6           0        3.307510    0.428455   -0.832420
     11          6           0        3.259512   -0.967659   -0.205855
     12          6           0        2.464501   -0.978301    1.101602
     13          6           0        1.054778   -0.424606    0.865161
     14          1           0        0.478221   -0.403282    1.803576
     15          7           0        0.408256   -1.318045   -0.091004
     16          6           0       -0.839112   -1.138263   -0.386370
     17          1           0       -2.096216    1.987500    0.418798
     18          1           0        0.001651    2.735340    0.615516
     19          1           0        1.314889    0.457634   -1.712690
     20          1           0        1.975117    2.063027   -1.374249
     21          1           0        3.811497    0.390386   -1.804941
     22          1           0        3.907277    1.094761   -0.196134
     23          1           0        2.781836   -1.664433   -0.901723
     24          1           0        4.278676   -1.331181   -0.028707
     25          1           0        2.379043   -2.000240    1.485421
     26          1           0        2.974452   -0.380483    1.869668
     27          1           0       -1.300378   -1.892887   -1.022886
 ---------------------------------------------------------------------

 Alpha  occ. eigenvalues --  -20.59236 -20.58904 -15.84722 -15.64136 -15.56113
 Alpha  occ. eigenvalues --  -11.35018 -11.29623 -11.29560 -11.28628 -11.27134
 Alpha  occ. eigenvalues --  -11.23729 -11.23208 -11.22692 -11.22090  -1.57115
 Alpha  occ. eigenvalues --   -1.36708  -1.30977  -1.23064  -1.14703  -1.09819
 Alpha  occ. eigenvalues --   -1.02805  -1.01308  -0.94481  -0.89685  -0.85566
 Alpha  occ. eigenvalues --   -0.82448  -0.78609  -0.77411  -0.75203  -0.72019
 Alpha  occ. eigenvalues --   -0.69770  -0.69437  -0.67820  -0.64893  -0.63777
 Alpha  occ. eigenvalues --   -0.62367  -0.60282  -0.57700  -0.57001  -0.55077
 Alpha  occ. eigenvalues --   -0.54582  -0.50762  -0.50108  -0.48656  -0.48102
 Alpha  occ. eigenvalues --   -0.47372  -0.46147  -0.46045  -0.43677  -0.41695
 Alpha  occ. eigenvalues --   -0.39849  -0.33830
 Alpha virt. eigenvalues --    0.07464   0.11799   0.17307   0.21848   0.24112
 Alpha virt. eigenvalues --    0.25663   0.27134   0.28694   0.29043   0.29635
 Alpha virt. eigenvalues --    0.30682   0.31797   0.32036   0.32766   0.33950

 Mulliken charges:
               1
     1  O   -0.467236
     2  N    0.491292
     3  O   -0.504053
     4  C    0.000448
     5  C    0.188863
     6  N   -0.780291
     7  C    0.060266
     8  H    0.180079
     9  C   -0.301428
    10  C   -0.327940
    11  C   -0.321489
    12  C   -0.306657
    13  C   -0.037191
    14  H    0.189958
    15  N   -0.511209
    16  C    0.120056
    17  H    0.295319
    18  H    0.404874
    19  H    0.190181
    20  H    0.161385
    21  H    0.174647
    22  H    0.149362
    23  H    0.199933
    24  H    0.164542
    25  H    0.187064
    26  H    0.150348
    27  H    0.248877
 Sum of Mulliken charges =  -0.00000

 Dipole moment (field-independent basis, Debye):
    X=              5.4161    Y=              4.7958    Z=              1.2811  Tot=              7.3468
 Quadrupole moment (field-independent basis, Debye-Ang):
   XX=           -106.1415   YY=            -79.2258   ZZ=            -81.5010
   XY=             -1.7656   XZ=             -0.1330   YZ=              1.8561

 Normal termination of Gaussian 16 at Sun Jul  2 18:00:53 2023.
