 Gaussian 16, Revision C.02,
 Gaussian 16:  ES64L-G16RevC.02  7-Dec-2021

 ---------------------------------------------------------
 #MP2/6-31G* SCF=Tight Opt=(ModRedun, MaxCycle=20 ) NoSymm
 ---------------------------------------------------------

 --------
 MolName:
 --------
 Symbolic Z-matrix:
 Charge =  0 Multiplicity = 1

 SCF Done:  E(RHF) =  -661.276521357     A.U. after   16 cycles
 E2 =    -0.2037551686D+01 EUMP2 =    -0.66331407304244D+03
 SCF Done:  E(RHF) =  -661.294332640     A.U. after   15 cycles
 E2 =    -0.2033053650D+01 EUMP2 =    -0.66332738628985D+03
 SCF Done:  E(RHF) =  -661.291991435     A.U. after   17 cycles
 E2 =    -0.2034447469D+01 EUMP2 =    -0.66332643890391D+03
 SCF Done:  E(RHF) =  -661.293232868     A.U. after   15 cycles
 E2 =    -0.2035714771D+01 EUMP2 =    -0.66332894763971D+03
 SCF Done:  E(RHF) =  -661.297337505     A.U. after   15 cycles
 E2 =    -0.2035698418D+01 EUMP2 =    -0.66333303592341D+03
 SCF Done:  E(RHF) =  -661.298890788     A.U. after   14 cycles
 E2 =    -0.2034901182D+01 EUMP2 =    -0.66333379196954D+03
 SCF Done:  E(RHF) =  -661.299222720     A.U. after   12 cycles
 E2 =    -0.2034710177D+01 EUMP2 =    -0.66333393289730D+03
 SCF Done:  E(RHF) =  -661.299220358     A.U. after   11 cycles
 E2 =    -0.2034737249D+01 EUMP2 =    -0.66333395760720D+03
 SCF Done:  E(RHF) =  -661.299188007     A.U. after   11 cycles
 E2 =    -0.2034773518D+01 EUMP2 =    -0.66333396152477D+03
 SCF Done:  E(RHF) =  -661.299169950     A.U. after    9 cycles
 E2 =    -0.2034791719D+01 EUMP2 =    -0.66333396166920D+03
 Optimization completed.
    -- Stationary point found.

                          Input orientation:
 ---------------------------------------------------------------------
 Center     Atomic      Atomic             Coordinates (Angstroms)
 Number     Number       Type             X           Y           Z
 ---------------------------------------------------------------------
      1          8           0       -3.506718   -1.392295   -0.347718
      2          7           0       -3.118406   -0.224215   -0.151612
      3          8           0       -3.888983    0.748019   -0.032700
      4          6           0       -1.682628   -0.013002   -0.058557
      5          6           0       -1.299022    1.249338    0.312351
      6          7           0       -0.056407    1.757655    0.373702
      7          6           0        1.208626    1.031236    0.350385
      8          1           0        1.858159    1.563560    1.061296
      9          6           0        1.909250    1.032055   -1.006327
     10          6           0        3.306431    0.423042   -0.839731
     11          6           0        3.256545   -0.968815   -0.203723
     12          6           0        2.463343   -0.969668    1.104995
     13          6           0        1.054422   -0.415098    0.864569
     14          1           0        0.476450   -0.385685    1.801955
     15          7           0        0.407996   -1.315502   -0.083150
     16          6           0       -0.839348   -1.143932   -0.385417
     17          1           0       -2.095917    1.965400    0.494216
     18          1           0       -0.005997    2.716105    0.698843
     19          1           0        1.312665    0.450940   -1.717593
     20          1           0        1.976049    2.057208   -1.390669
     21          1           0        3.809117    0.377085   -1.812580
     22          1           0        3.908649    1.092319   -0.208890
     23          1           0        2.776419   -1.669338   -0.894177
     24          1           0        4.275223   -1.333307   -0.025789
     25          1           0        2.376948   -1.988824    1.495833
     26          1           0        2.974915   -0.367031    1.868226
     27          1           0       -1.294779   -1.912250   -1.009768
 ---------------------------------------------------------------------

 Alpha  occ. eigenvalues --  -20.59326 -20.59005 -15.84772 -15.64039 -15.56139
 Alpha  occ. eigenvalues --  -11.34968 -11.29603 -11.29597 -11.28710 -11.27175
 Alpha  occ. eigenvalues --  -11.23650 -11.23171 -11.22696 -11.22081  -1.57186
 Alpha  occ. eigenvalues --   -1.36791  -1.30877  -1.23066  -1.14702  -1.09817
 Alpha  occ. eigenvalues --   -1.02780  -1.01269  -0.94495  -0.89721  -0.85474
 Alpha  occ. eigenvalues --   -0.82480  -0.78584  -0.77434  -0.75184  -0.71999
 Alpha  occ. eigenvalues --   -0.69889  -0.69402  -0.67766  -0.64889  -0.63811
 Alpha  occ. eigenvalues --   -0.62239  -0.60327  -0.57662  -0.56969  -0.55089
 Alpha  occ. eigenvalues --   -0.54539  -0.50711  -0.50154  -0.48732  -0.48116
 Alpha  occ. eigenvalues --   -0.47419  -0.46122  -0.46046  -0.43715  -0.41786
 Alpha  occ. eigenvalues --   -0.39741  -0.33880
 Alpha virt. eigenvalues --    0.07330   0.11659   0.17269   0.21835   0.24221
 Alpha virt. eigenvalues --    0.25912   0.26898   0.28713   0.29141   0.29710
 Alpha virt. eigenvalues --    0.30597   0.31831   0.31999   0.32750   0.34054

 Mulliken charges:
               1
     1  O   -0.466694
     2  N    0.491327
     3  O   -0.501943
     4  C    0.007779
     5  C    0.176589
     6  N   -0.772195
     7  C    0.057616
     8  H    0.179434
     9  C   -0.300196
    10  C   -0.328304
    11  C   -0.321670
    12  C   -0.306244
    13  C   -0.038882
    14  H    0.187166
    15  N   -0.511539
    16  C    0.123225
    17  H    0.295118
    18  H    0.403310
    19  H    0.190195
    20  H    0.163717
    21  H    0.174698
    22  H    0.149115
    23  H    0.199953
    24  H    0.164528
    25  H    0.187032
    26  H    0.149863
    27  H    0.247002
 Sum of Mulliken charges =  -0.00000

 Dipole moment (field-independent basis, Debye):
    X=              5.3576    Y=              4.6659    Z=              1.5893  Tot=              7.2802
 Quadrupole moment (field-independent basis, Debye-Ang):
   XX=           -105.9157   YY=            -79.7235   ZZ=            -81.1288
   XY=             -1.5864   XZ=             -0.7288   YZ=              2.7627

 Normal termination of Gaussian 16 at Sun Jul  2 18:22:39 2023.
