 Gaussian 16, Revision C.02,
 Gaussian 16:  ES64L-G16RevC.02  7-Dec-2021

 ---------------------------------------------------------
 #MP2/6-31G* SCF=Tight Opt=(ModRedun, MaxCycle=20 ) NoSymm
 ---------------------------------------------------------

 --------
 MolName:
 --------
 Symbolic Z-matrix:
 Charge =  0 Multiplicity = 1

 SCF Done:  E(RHF) =  -661.270025997     A.U. after   16 cycles
 E2 =    -0.2038013815D+01 EUMP2 =    -0.66330803981116D+03
 SCF Done:  E(RHF) =  -661.288531214     A.U. after   15 cycles
 E2 =    -0.2033869704D+01 EUMP2 =    -0.66332240091733D+03
 SCF Done:  E(RHF) =  -661.285626491     A.U. after   17 cycles
 E2 =    -0.2035618740D+01 EUMP2 =    -0.66332124523054D+03
 SCF Done:  E(RHF) =  -661.289971487     A.U. after   15 cycles
 E2 =    -0.2036549676D+01 EUMP2 =    -0.66332652116317D+03
 SCF Done:  E(RHF) =  -661.293439539     A.U. after   15 cycles
 E2 =    -0.2036790154D+01 EUMP2 =    -0.66333022969330D+03
 SCF Done:  E(RHF) =  -661.295741981     A.U. after   14 cycles
 E2 =    -0.2035714272D+01 EUMP2 =    -0.66333145625305D+03
 SCF Done:  E(RHF) =  -661.296111244     A.U. after   13 cycles
 E2 =    -0.2035666856D+01 EUMP2 =    -0.66333177809984D+03
 SCF Done:  E(RHF) =  -661.295989683     A.U. after   12 cycles
 E2 =    -0.2035847966D+01 EUMP2 =    -0.66333183764946D+03
 SCF Done:  E(RHF) =  -661.295947698     A.U. after   12 cycles
 E2 =    -0.2035895923D+01 EUMP2 =    -0.66333184362054D+03
 SCF Done:  E(RHF) =  -661.295932442     A.U. after   10 cycles
 E2 =    -0.2035912467D+01 EUMP2 =    -0.66333184490835D+03
 Optimization completed.
    -- Stationary point found.

                          Input orientation:
 ---------------------------------------------------------------------
 Center     Atomic      Atomic             Coordinates (Angstroms)
 Number     Number       Type             X           Y           Z
 ---------------------------------------------------------------------
      1          8           0       -3.509951   -1.384927   -0.331835
      2          7           0       -3.113143   -0.211783   -0.191213
      3          8           0       -3.874743    0.772802   -0.128973
      4          6           0       -1.674958   -0.003511   -0.106072
      5          6           0       -1.293824    1.232671    0.347569
      6          7           0       -0.056727    1.765698    0.366497
      7          6           0        1.211420    1.038465    0.344819
      8          1           0        1.863692    1.573938    1.050363
      9          6           0        1.906355    1.029687   -1.014157
     10          6           0        3.302838    0.418673   -0.847942
     11          6           0        3.252580   -0.969065   -0.202841
     12          6           0        2.463717   -0.960752    1.108610
     13          6           0        1.054811   -0.406192    0.866576
     14          1           0        0.476664   -0.369469    1.803715
     15          7           0        0.407485   -1.315692   -0.070571
     16          6           0       -0.840627   -1.154083   -0.377489
     17          1           0       -2.094292    1.936345    0.561266
     18          1           0       -0.012912    2.693445    0.773224
     19          1           0        1.306304    0.444911   -1.719576
     20          1           0        1.973155    2.052137   -1.405047
     21          1           0        3.802316    0.365256   -1.822070
     22          1           0        3.908500    1.090854   -0.223520
     23          1           0        2.768826   -1.673253   -0.887105
     24          1           0        4.271213   -1.334350   -0.026237
     25          1           0        2.377720   -1.977188    1.506433
     26          1           0        2.977967   -0.353070    1.866034
     27          1           0       -1.292407   -1.937587   -0.985460
 ---------------------------------------------------------------------

 Alpha  occ. eigenvalues --  -20.59435 -20.59137 -15.84807 -15.63959 -15.56170
 Alpha  occ. eigenvalues --  -11.34946 -11.29658 -11.29580 -11.28805 -11.27236
 Alpha  occ. eigenvalues --  -11.23597 -11.23146 -11.22704 -11.22081  -1.57253
 Alpha  occ. eigenvalues --   -1.36880  -1.30770  -1.23066  -1.14707  -1.09818
 Alpha  occ. eigenvalues --   -1.02750  -1.01224  -0.94484  -0.89748  -0.85387
 Alpha  occ. eigenvalues --   -0.82497  -0.78525  -0.77469  -0.75144  -0.71982
 Alpha  occ. eigenvalues --   -0.69991  -0.69364  -0.67700  -0.64869  -0.63840
 Alpha  occ. eigenvalues --   -0.62107  -0.60371  -0.57616  -0.56925  -0.55095
 Alpha  occ. eigenvalues --   -0.54515  -0.50662  -0.50213  -0.48828  -0.48134
 Alpha  occ. eigenvalues --   -0.47473  -0.46104  -0.46060  -0.43745  -0.41917
 Alpha  occ. eigenvalues --   -0.39621  -0.33948
 Alpha virt. eigenvalues --    0.07129   0.11476   0.17247   0.21794   0.24270
 Alpha virt. eigenvalues --    0.25693   0.26779   0.28598   0.29271   0.29711
 Alpha virt. eigenvalues --    0.30600   0.31879   0.31974   0.32731   0.34128

 Mulliken charges:
               1
     1  O   -0.466257
     2  N    0.489507
     3  O   -0.496250
     4  C    0.021999
     5  C    0.157956
     6  N   -0.755913
     7  C    0.050929
     8  H    0.179318
     9  C   -0.299360
    10  C   -0.328575
    11  C   -0.321905
    12  C   -0.305629
    13  C   -0.040974
    14  H    0.184769
    15  N   -0.511907
    16  C    0.121813
    17  H    0.293263
    18  H    0.400726
    19  H    0.190223
    20  H    0.165931
    21  H    0.174777
    22  H    0.149008
    23  H    0.199963
    24  H    0.164569
    25  H    0.187077
    26  H    0.149449
    27  H    0.245493
 Sum of Mulliken charges =  -0.00000

 Dipole moment (field-independent basis, Debye):
    X=              5.2978    Y=              4.4938    Z=              1.8674  Tot=              7.1936
 Quadrupole moment (field-independent basis, Debye-Ang):
   XX=           -105.6050   YY=            -80.2832   ZZ=            -80.8202
   XY=             -1.3076   XZ=             -1.3501   YZ=              3.5580

 Normal termination of Gaussian 16 at Sun Jul  2 18:44:58 2023.
