 Gaussian 16, Revision C.02,
 Gaussian 16:  ES64L-G16RevC.02  7-Dec-2021

 ---------------------------------------------------------
 #MP2/6-31G* SCF=Tight Opt=(ModRedun, MaxCycle=20 ) NoSymm
 ---------------------------------------------------------

 --------
 MolName:
 --------
 Symbolic Z-matrix:
 Charge =  0 Multiplicity = 1

 SCF Done:  E(RHF) =  -661.276490605     A.U. after   16 cycles
 E2 =    -0.2038133845D+01 EUMP2 =    -0.66331462444982D+03
 SCF Done:  E(RHF) =  -661.294577470     A.U. after   15 cycles
 E2 =    -0.2033874637D+01 EUMP2 =    -0.66332845210680D+03
 SCF Done:  E(RHF) =  -661.288185609     A.U. after   17 cycles
 E2 =    -0.2035826424D+01 EUMP2 =    -0.66332401203273D+03
 SCF Done:  E(RHF) =  -661.289856712     A.U. after   15 cycles
 E2 =    -0.2036866597D+01 EUMP2 =    -0.66332672330922D+03
 SCF Done:  E(RHF) =  -661.295230453     A.U. after   11 cycles
 E2 =    -0.2034908046D+01 EUMP2 =    -0.66333013849888D+03
 SCF Done:  E(RHF) =  -661.294962621     A.U. after   13 cycles
 E2 =    -0.2035732608D+01 EUMP2 =    -0.66333069522821D+03
 SCF Done:  E(RHF) =  -661.295135962     A.U. after   12 cycles
 E2 =    -0.2035606526D+01 EUMP2 =    -0.66333074248851D+03
 SCF Done:  E(RHF) =  -661.295387610     A.U. after   11 cycles
 E2 =    -0.2035361690D+01 EUMP2 =    -0.66333074930020D+03
 SCF Done:  E(RHF) =  -661.295396786     A.U. after   10 cycles
 E2 =    -0.2035353258D+01 EUMP2 =    -0.66333075004329D+03
 Optimization completed.
    -- Stationary point found.

                          Input orientation:
 ---------------------------------------------------------------------
 Center     Atomic      Atomic             Coordinates (Angstroms)
 Number     Number       Type             X           Y           Z
 ---------------------------------------------------------------------
      1          8           0       -3.508560   -1.373045   -0.384022
      2          7           0       -3.115539   -0.241277   -0.039900
      3          8           0       -3.883858    0.702283    0.231407
      4          6           0       -1.679532   -0.043368    0.084502
      5          6           0       -1.292791    1.271385    0.170296
      6          7           0       -0.062267    1.745818    0.420617
      7          6           0        1.196332    1.010107    0.386871
      8          1           0        1.841420    1.525424    1.114733
      9          6           0        1.904902    1.047899   -0.967044
     10          6           0        3.305835    0.445378   -0.812191
     11          6           0        3.261513   -0.961770   -0.211228
     12          6           0        2.463870   -0.997249    1.093922
     13          6           0        1.051585   -0.446984    0.866410
     14          1           0        0.476316   -0.447680    1.805842
     15          7           0        0.406822   -1.330369   -0.107357
     16          6           0       -0.841098   -1.136443   -0.386391
     17          1           0       -2.086930    2.013078    0.209307
     18          1           0        0.025033    2.756654    0.419199
     19          1           0        1.315031    0.481365   -1.695842
     20          1           0        1.969649    2.082954   -1.326926
     21          1           0        3.811704    0.427559   -1.784341
     22          1           0        3.901035    1.102517   -0.162362
     23          1           0        2.788047   -1.647768   -0.920458
     24          1           0        4.281666   -1.324390   -0.038011
     25          1           0        2.381513   -2.025920    1.460110
     26          1           0        2.969998   -0.410923    1.873181
     27          1           0       -1.320685   -1.862236   -1.042304
 ---------------------------------------------------------------------

 Alpha  occ. eigenvalues --  -20.59175 -20.58870 -15.84592 -15.64292 -15.56147
 Alpha  occ. eigenvalues --  -11.35177 -11.29629 -11.29605 -11.28541 -11.27125
 Alpha  occ. eigenvalues --  -11.23970 -11.23324 -11.22708 -11.22137  -1.57030
 Alpha  occ. eigenvalues --   -1.36643  -1.31079  -1.23106  -1.14733  -1.09854
 Alpha  occ. eigenvalues --   -1.02815  -1.01359  -0.94367  -0.89581  -0.85737
 Alpha  occ. eigenvalues --   -0.82341  -0.78470  -0.77432  -0.75149  -0.72035
 Alpha  occ. eigenvalues --   -0.69557  -0.69523  -0.67850  -0.64873  -0.63715
 Alpha  occ. eigenvalues --   -0.62618  -0.60212  -0.57684  -0.57035  -0.55048
 Alpha  occ. eigenvalues --   -0.54714  -0.50884  -0.50060  -0.48600  -0.48110
 Alpha  occ. eigenvalues --   -0.47329  -0.46245  -0.46073  -0.43611  -0.41657
 Alpha  occ. eigenvalues --   -0.40065  -0.33902
 Alpha virt. eigenvalues --    0.07411   0.11963   0.17430   0.21685   0.23295
 Alpha virt. eigenvalues --    0.24722   0.27322   0.28097   0.28967   0.29554
 Alpha virt. eigenvalues --    0.30912   0.31648   0.32253   0.32769   0.33738

 Mulliken charges:
               1
     1  O   -0.468947
     2  N    0.486887
     3  O   -0.497791
     4  C    0.011051
     5  C    0.182483
     6  N   -0.757159
     7  C    0.046820
     8  H    0.183529
     9  C   -0.305609
    10  C   -0.326693
    11  C   -0.321270
    12  C   -0.307108
    13  C   -0.036425
    14  H    0.196725
    15  N   -0.507420
    16  C    0.100846
    17  H    0.290777
    18  H    0.401997
    19  H    0.189555
    20  H    0.156784
    21  H    0.174561
    22  H    0.150437
    23  H    0.199899
    24  H    0.164735
    25  H    0.187406
    26  H    0.151734
    27  H    0.252194
 Sum of Mulliken charges =  -0.00000

 Dipole moment (field-independent basis, Debye):
    X=              5.4998    Y=              4.8612    Z=              0.4825  Tot=              7.3561
 Quadrupole moment (field-independent basis, Debye-Ang):
   XX=           -106.1552   YY=            -78.7547   ZZ=            -82.2909
   XY=             -1.8298   XZ=              1.3787   YZ=             -0.2689

 Normal termination of Gaussian 16 at Sat Jul  1 04:05:41 2023.
