 Gaussian 09, Revision A.01,
 Gaussian 09:  EM64L-G09RevA.01  8-May-2009

 ------------------------------
 #HF/6-31G* Opt=Z-matrix NoSymm
 ------------------------------

 -------------------------------
 water interaction with atom H13
 -------------------------------
 Symbolic Z-matrix:
 Charge =  0 Multiplicity = 1

 SCF Done:  E(RHF) =  -1154.67683016     A.U. after   15 cycles
 SCF Done:  E(RHF) =  -1154.67710850     A.U. after   10 cycles
 SCF Done:  E(RHF) =  -1154.67797105     A.U. after   10 cycles
 SCF Done:  E(RHF) =  -1154.67922234     A.U. after   11 cycles
 SCF Done:  E(RHF) =  -1154.67791996     A.U. after   12 cycles
 SCF Done:  E(RHF) =  -1154.67905608     A.U. after   11 cycles
 SCF Done:  E(RHF) =  -1154.67911812     A.U. after    9 cycles
 SCF Done:  E(RHF) =  -1154.67917301     A.U. after    9 cycles
 SCF Done:  E(RHF) =  -1154.67921953     A.U. after    9 cycles
 SCF Done:  E(RHF) =  -1154.67925632     A.U. after    9 cycles
 SCF Done:  E(RHF) =  -1154.67929350     A.U. after   10 cycles
 SCF Done:  E(RHF) =  -1154.67929534     A.U. after    9 cycles
 Optimization completed.
    -- Stationary point found.

                         Z-Matrix orientation:
 ---------------------------------------------------------------------
 Center     Atomic      Atomic             Coordinates (Angstroms)
 Number     Number       Type             X           Y           Z
 ---------------------------------------------------------------------
      1          9           0       -1.969300    2.053680    0.000070
      2          6           0       -1.222250    0.944230    0.000030
      3          6           0        0.140030    1.057400   -0.000020
      4          6           0        0.927950   -0.123640   -0.000080
      5          6           0        2.414660   -0.018650   -0.000010
      6          9           0        3.007080   -1.234610   -0.000560
      7          9           0        2.858290    0.654480   -1.086020
      8          9           0        2.858270    0.653500    1.086650
      9          6           0        0.306540   -1.341490   -0.000090
     10          7           0       -1.054170   -1.389970   -0.000060
     11          6           0       -1.930500   -0.312100    0.000000
     12         16           0       -3.570980   -0.506610    0.000030
     13          1           0        0.596860    2.043100   -0.000020
     14          1           0        0.831760   -2.288990   -0.000150
     15          1           0       -1.521480   -2.296390   -0.000090
     16         -1           0        1.504156    1.622607   -0.000062
     17         -1           0        1.083663    0.715311   -0.000062
     18          8           0        1.527997    4.052210   -0.000020
     19          1           0        2.461134    4.265486   -0.000052
     20          1           0        1.087579    4.902071    0.000012
 ---------------------------------------------------------------------

 Alpha  occ. eigenvalues --  -91.89254 -26.35950 -26.34899 -26.34897 -26.32001
 Alpha  occ. eigenvalues --  -20.58369 -15.67605 -11.53135 -11.36590 -11.35510
 Alpha  occ. eigenvalues --  -11.34944 -11.29138 -11.29014  -8.90353  -6.58687
 Alpha  occ. eigenvalues --   -6.58405  -6.58285  -1.73129  -1.64169  -1.63402
 Alpha  occ. eigenvalues --   -1.63272  -1.36463  -1.34370  -1.15718  -1.10718
 Alpha  occ. eigenvalues --   -1.01750  -0.95970  -0.91282  -0.86980  -0.83681
 Alpha  occ. eigenvalues --   -0.82694  -0.82364  -0.75729  -0.74604  -0.72917
 Alpha  occ. eigenvalues --   -0.72584  -0.71294  -0.70586  -0.69932  -0.68746
 Alpha  occ. eigenvalues --   -0.66544  -0.66520  -0.65123  -0.62697  -0.61351
 Alpha  occ. eigenvalues --   -0.60783  -0.58681  -0.57327  -0.52132  -0.51289
 Alpha  occ. eigenvalues --   -0.45073  -0.41966  -0.32986  -0.29814
 Alpha virt. eigenvalues --    0.05927   0.09956   0.18522   0.19431   0.26172
 Alpha virt. eigenvalues --    0.27287   0.27971   0.28974   0.30690   0.32185
 Alpha virt. eigenvalues --    0.35848   0.38977   0.40990   0.41813   0.44015

 Mulliken atomic charges:
              1
     1  F   -0.363486
     2  C    0.381680
     3  C   -0.199013
     4  C   -0.314870
     5  C    1.209148
     6  F   -0.386233
     7  F   -0.375135
     8  F   -0.375141
     9  C    0.170459
    10  N   -0.780172
    11  C    0.187824
    12  S   -0.253252
    13  H    0.361337
    14  H    0.282915
    15  H    0.438565
    16  O   -0.877652
    17  H    0.445983
    18  H    0.447044
 Sum of Mulliken atomic charges =   0.00000

 Dipole moment (field-independent basis, Debye):
    X=              5.0216    Y=              0.1021    Z=             -0.0004  Tot=              5.0227
 Quadrupole moment (field-independent basis, Debye-Ang):
   XX=           -101.9042   YY=            -51.6183   ZZ=            -82.6078
   XY=              9.1137   XZ=             -0.0003   YZ=              0.0003

 Normal termination of Gaussian 09 at Fri Sep 24 08:26:19 2021.
