 Gaussian 09, Revision A.01,
 Gaussian 09:  EM64L-G09RevA.01  8-May-2009

 ------------------------------
 #HF/6-31G* Opt=Z-matrix NoSymm
 ------------------------------

 -------------------------------
 water interaction with atom H13
 -------------------------------
 Symbolic Z-matrix:
 Charge =  0 Multiplicity = 1

 SCF Done:  E(RHF) =  -1154.67894134     A.U. after   15 cycles
 SCF Done:  E(RHF) =  -1154.67894147     A.U. after    5 cycles
 SCF Done:  E(RHF) =  -1154.67894163     A.U. after    6 cycles
 SCF Done:  E(RHF) =  -1154.67894169     A.U. after    6 cycles
 Optimization completed.
    -- Stationary point found.

                         Z-Matrix orientation:
 ---------------------------------------------------------------------
 Center     Atomic      Atomic             Coordinates (Angstroms)
 Number     Number       Type             X           Y           Z
 ---------------------------------------------------------------------
      1          9           0       -1.969300    2.053680    0.000070
      2          6           0       -1.222250    0.944230    0.000030
      3          6           0        0.140030    1.057400   -0.000020
      4          6           0        0.927950   -0.123640   -0.000080
      5          6           0        2.414660   -0.018650   -0.000010
      6          9           0        3.007080   -1.234610   -0.000560
      7          9           0        2.858290    0.654480   -1.086020
      8          9           0        2.858270    0.653500    1.086650
      9          6           0        0.306540   -1.341490   -0.000090
     10          7           0       -1.054170   -1.389970   -0.000060
     11          6           0       -1.930500   -0.312100    0.000000
     12         16           0       -3.570980   -0.506610    0.000030
     13          1           0        0.596860    2.043100   -0.000020
     14          1           0        0.831760   -2.288990   -0.000150
     15          1           0       -1.521480   -2.296390   -0.000090
     16         -1           0        1.504156    1.622607   -0.000062
     17         -1           0        1.083663    0.715311   -0.000062
     18          8           0        1.530382    4.057356   -0.000020
     19          1           0        1.776712    4.588938   -0.756970
     20          1           0        1.776770    4.588911    0.756930
 ---------------------------------------------------------------------

 Alpha  occ. eigenvalues --  -91.89229 -26.35827 -26.34687 -26.34684 -26.31896
 Alpha  occ. eigenvalues --  -20.58412 -15.67574 -11.52988 -11.36559 -11.35485
 Alpha  occ. eigenvalues --  -11.34887 -11.29096 -11.28964  -8.90327  -6.58662
 Alpha  occ. eigenvalues --   -6.58380  -6.58260  -1.72948  -1.64009  -1.63189
 Alpha  occ. eigenvalues --   -1.63162  -1.36495  -1.34336  -1.15662  -1.10680
 Alpha  occ. eigenvalues --   -1.01663  -0.95891  -0.91203  -0.86930  -0.83568
 Alpha  occ. eigenvalues --   -0.82535  -0.82176  -0.75644  -0.74510  -0.72960
 Alpha  occ. eigenvalues --   -0.72504  -0.71114  -0.70421  -0.69829  -0.68700
 Alpha  occ. eigenvalues --   -0.66370  -0.66350  -0.64916  -0.62581  -0.61309
 Alpha  occ. eigenvalues --   -0.60762  -0.58598  -0.57306  -0.52133  -0.51258
 Alpha  occ. eigenvalues --   -0.45043  -0.41933  -0.32959  -0.29780
 Alpha virt. eigenvalues --    0.05934   0.10004   0.18536   0.19407   0.26214
 Alpha virt. eigenvalues --    0.27321   0.28005   0.28902   0.30761   0.32236
 Alpha virt. eigenvalues --    0.35958   0.38998   0.41058   0.41920   0.44094

 Mulliken atomic charges:
              1
     1  F   -0.361903
     2  C    0.383748
     3  C   -0.203815
     4  C   -0.315124
     5  C    1.211732
     6  F   -0.386701
     7  F   -0.374848
     8  F   -0.374858
     9  C    0.169662
    10  N   -0.779979
    11  C    0.187325
    12  S   -0.253289
    13  H    0.360812
    14  H    0.282786
    15  H    0.438434
    16  O   -0.875984
    17  H    0.446001
    18  H    0.446000
 Sum of Mulliken atomic charges =   0.00000

 Dipole moment (field-independent basis, Debye):
    X=              5.0334    Y=              0.1366    Z=             -0.0004  Tot=              5.0353
 Quadrupole moment (field-independent basis, Debye-Ang):
   XX=           -104.3960   YY=            -52.1174   ZZ=            -79.4771
   XY=             10.3563   XZ=             -0.0001   YZ=              0.0002

 Normal termination of Gaussian 09 at Fri Sep 24 08:27:07 2021.
