 Gaussian 16, Revision C.02,
 Gaussian 16:  ES64L-G16RevC.02  7-Dec-2021

 ---------------------------------------------------------
 #MP2/6-31G* SCF=Tight Opt=(ModRedun, MaxCycle=20 ) NoSymm
 ---------------------------------------------------------

 --------
 MolName:
 --------
 Symbolic Z-matrix:
 Charge =  0 Multiplicity = 1

 SCF Done:  E(RHF) =  -661.280995748     A.U. after   16 cycles
 E2 =    -0.2037276468D+01 EUMP2 =    -0.66331827221655D+03
 SCF Done:  E(RHF) =  -661.298160469     A.U. after   15 cycles
 E2 =    -0.2032723612D+01 EUMP2 =    -0.66333088408066D+03
 SCF Done:  E(RHF) =  -661.296027606     A.U. after   15 cycles
 E2 =    -0.2033866372D+01 EUMP2 =    -0.66332989397780D+03
 SCF Done:  E(RHF) =  -661.292614697     A.U. after   16 cycles
 E2 =    -0.2035867109D+01 EUMP2 =    -0.66332848180617D+03
 SCF Done:  E(RHF) =  -661.290926321     A.U. after   15 cycles
 E2 =    -0.2036046614D+01 EUMP2 =    -0.66332697293450D+03
 SCF Done:  E(RHF) =  -661.298443290     A.U. after   12 cycles
 E2 =    -0.2033545959D+01 EUMP2 =    -0.66333198924968D+03
 SCF Done:  E(RHF) =  -661.299547436     A.U. after   14 cycles
 E2 =    -0.2034595248D+01 EUMP2 =    -0.66333414268403D+03
 SCF Done:  E(RHF) =  -661.300000552     A.U. after   13 cycles
 E2 =    -0.2034522793D+01 EUMP2 =    -0.66333452334483D+03
 SCF Done:  E(RHF) =  -661.300371889     A.U. after   12 cycles
 E2 =    -0.2034240035D+01 EUMP2 =    -0.66333461192396D+03
 SCF Done:  E(RHF) =  -661.300348421     A.U. after   11 cycles
 E2 =    -0.2034284404D+01 EUMP2 =    -0.66333463282513D+03
 SCF Done:  E(RHF) =  -661.300309117     A.U. after   11 cycles
 E2 =    -0.2034328866D+01 EUMP2 =    -0.66333463798371D+03
 SCF Done:  E(RHF) =  -661.300293552     A.U. after   10 cycles
 E2 =    -0.2034344706D+01 EUMP2 =    -0.66333463825818D+03
 Optimization completed.
    -- Stationary point found.

                          Input orientation:
 ---------------------------------------------------------------------
 Center     Atomic      Atomic             Coordinates (Angstroms)
 Number     Number       Type             X           Y           Z
 ---------------------------------------------------------------------
      1          8           0       -3.892798    0.734013   -0.099001
      2          7           0       -3.119277   -0.243159   -0.113576
      3          8           0       -3.504240   -1.425879   -0.197537
      4          6           0       -1.686128   -0.023580   -0.015003
      5          6           0       -1.301781    1.283993    0.132069
      6          7           0       -0.057776    1.781871    0.201204
      7          6           0        1.204093    1.055968    0.260735
      8          1           0        1.847847    1.658029    0.919675
      9          6           0        1.916364    0.921315   -1.083845
     10          6           0        3.312978    0.335149   -0.846624
     11          6           0        3.259407   -0.985715   -0.074332
     12          6           0        2.456029   -0.855700    1.221518
     13          6           0        1.048425   -0.330203    0.917798
     14          1           0        0.465823   -0.208233    1.844702
     15          7           0        0.407225   -1.320842    0.058767
     16          6           0       -0.837950   -1.173058   -0.262009
     17          1           0       -2.096747    2.022622    0.188391
     18          1           0        0.000700    2.785635    0.325954
     19          1           0        1.326085    0.270659   -1.737850
     20          1           0        1.985888    1.902792   -1.569151
     21          1           0        3.823104    0.192806   -1.806178
     22          1           0        3.909421    1.065566   -0.281579
     23          1           0        2.785414   -1.752879   -0.694552
     24          1           0        4.277001   -1.328576    0.147384
     25          1           0        2.367072   -1.830478    1.712279
     26          1           0        2.961598   -0.178998    1.924246
     27          1           0       -1.296747   -1.992126   -0.815476
 ---------------------------------------------------------------------

 Alpha  occ. eigenvalues --  -20.59248 -20.58914 -15.84711 -15.64131 -15.56108
 Alpha  occ. eigenvalues --  -11.35017 -11.29621 -11.29573 -11.28620 -11.27134
 Alpha  occ. eigenvalues --  -11.23726 -11.23206 -11.22690 -11.22087  -1.57113
 Alpha  occ. eigenvalues --   -1.36712  -1.30973  -1.23069  -1.14706  -1.09823
 Alpha  occ. eigenvalues --   -1.02804  -1.01306  -0.94489  -0.89682  -0.85563
 Alpha  occ. eigenvalues --   -0.82453  -0.78606  -0.77416  -0.75206  -0.72017
 Alpha  occ. eigenvalues --   -0.69821  -0.69386  -0.67793  -0.64906  -0.63772
 Alpha  occ. eigenvalues --   -0.62373  -0.60280  -0.57699  -0.56999  -0.55081
 Alpha  occ. eigenvalues --   -0.54585  -0.50751  -0.50128  -0.48659  -0.48098
 Alpha  occ. eigenvalues --   -0.47385  -0.46132  -0.46054  -0.43668  -0.41696
 Alpha  occ. eigenvalues --   -0.39851  -0.33827
 Alpha virt. eigenvalues --    0.07461   0.11801   0.17304   0.21840   0.24110
 Alpha virt. eigenvalues --    0.25675   0.27137   0.28702   0.29043   0.29634
 Alpha virt. eigenvalues --    0.30646   0.31785   0.32032   0.32764   0.33944

 Mulliken charges:
               1
     1  O   -0.503791
     2  N    0.489653
     3  O   -0.466347
     4  C    0.001834
     5  C    0.189165
     6  N   -0.780336
     7  C    0.060082
     8  H    0.180075
     9  C   -0.301373
    10  C   -0.327930
    11  C   -0.321489
    12  C   -0.306689
    13  C   -0.037078
    14  H    0.189958
    15  N   -0.511367
    16  C    0.120398
    17  H    0.295011
    18  H    0.404863
    19  H    0.190145
    20  H    0.161436
    21  H    0.174636
    22  H    0.149353
    23  H    0.199937
    24  H    0.164537
    25  H    0.187097
    26  H    0.150327
    27  H    0.247893
 Sum of Mulliken charges =  -0.00000

 Dipole moment (field-independent basis, Debye):
    X=              5.4051    Y=              4.9069    Z=              0.8147  Tot=              7.3455
 Quadrupole moment (field-independent basis, Debye-Ang):
   XX=           -106.0890   YY=            -78.8940   ZZ=            -81.8417
   XY=             -1.7830   XZ=             -0.1903   YZ=              1.7962

 Normal termination of Gaussian 16 at Fri Jun 30 15:51:42 2023.
