 Gaussian 16, Revision C.02,
 Gaussian 16:  ES64L-G16RevC.02  7-Dec-2021

 ---------------------------------------------------------
 #MP2/6-31G* SCF=Tight Opt=(ModRedun, MaxCycle=20 ) NoSymm
 ---------------------------------------------------------

 --------
 MolName:
 --------
 Symbolic Z-matrix:
 Charge =  0 Multiplicity = 1

 SCF Done:  E(RHF) =  -661.280797960     A.U. after   17 cycles
 E2 =    -0.2037363206D+01 EUMP2 =    -0.66331816116657D+03
 SCF Done:  E(RHF) =  -661.297440620     A.U. after   15 cycles
 E2 =    -0.2033132855D+01 EUMP2 =    -0.66333057347466D+03
 SCF Done:  E(RHF) =  -661.290532215     A.U. after   17 cycles
 E2 =    -0.2034891170D+01 EUMP2 =    -0.66332542338493D+03
 SCF Done:  E(RHF) =  -661.295011084     A.U. after   16 cycles
 E2 =    -0.2035934301D+01 EUMP2 =    -0.66333094538531D+03
 SCF Done:  E(RHF) =  -661.298418765     A.U. after   14 cycles
 E2 =    -0.2035535708D+01 EUMP2 =    -0.66333395447287D+03
 SCF Done:  E(RHF) =  -661.299371444     A.U. after   12 cycles
 E2 =    -0.2034845293D+01 EUMP2 =    -0.66333421673652D+03
 SCF Done:  E(RHF) =  -661.299736600     A.U. after   12 cycles
 E2 =    -0.2034573521D+01 EUMP2 =    -0.66333431012129D+03
 SCF Done:  E(RHF) =  -661.299665419     A.U. after   11 cycles
 E2 =    -0.2034659712D+01 EUMP2 =    -0.66333432513090D+03
 SCF Done:  E(RHF) =  -661.299505712     A.U. after   11 cycles
 E2 =    -0.2034824105D+01 EUMP2 =    -0.66333432981716D+03
 SCF Done:  E(RHF) =  -661.299505641     A.U. after   10 cycles
 E2 =    -0.2034824637D+01 EUMP2 =    -0.66333433027754D+03
 Optimization completed.
    -- Stationary point found.

                          Input orientation:
 ---------------------------------------------------------------------
 Center     Atomic      Atomic             Coordinates (Angstroms)
 Number     Number       Type             X           Y           Z
 ---------------------------------------------------------------------
      1          8           0       -3.874804    0.730035   -0.301633
      2          7           0       -3.114217   -0.241685   -0.124891
      3          8           0       -3.505685   -1.423102   -0.045376
      4          6           0       -1.684266   -0.021514   -0.006328
      5          6           0       -1.301230    1.286054    0.139928
      6          7           0       -0.057177    1.782909    0.220172
      7          6           0        1.203673    1.054624    0.270871
      8          1           0        1.850692    1.651975    0.930738
      9          6           0        1.909807    0.927285   -1.077754
     10          6           0        3.307538    0.339832   -0.850631
     11          6           0        3.257773   -0.985284   -0.085470
     12          6           0        2.460739   -0.862308    1.214925
     13          6           0        1.051356   -0.336123    0.920474
     14          1           0        0.472871   -0.219674    1.850591
     15          7           0        0.406620   -1.323495    0.060102
     16          6           0       -0.840047   -1.173343   -0.252296
     17          1           0       -2.096079    2.025678    0.187166
     18          1           0        0.002015    2.785012    0.356913
     19          1           0        1.316239    0.280214   -1.732414
     20          1           0        1.976869    1.911365   -1.558054
     21          1           0        3.813005    0.202882   -1.813443
     22          1           0        3.906712    1.067120   -0.284432
     23          1           0        2.780789   -1.749088   -0.707546
     24          1           0        4.276449   -1.329312    0.129407
     25          1           0        2.374540   -1.839618    1.701114
     26          1           0        2.969372   -0.188943    1.918639
     27          1           0       -1.304564   -1.991475   -0.803743
 ---------------------------------------------------------------------

 Alpha  occ. eigenvalues --  -20.59328 -20.59017 -15.84666 -15.64082 -15.56097
 Alpha  occ. eigenvalues --  -11.35016 -11.29648 -11.29608 -11.28587 -11.27130
 Alpha  occ. eigenvalues --  -11.23708 -11.23193 -11.22680 -11.22077  -1.57111
 Alpha  occ. eigenvalues --   -1.36743  -1.30936  -1.23084  -1.14719  -1.09843
 Alpha  occ. eigenvalues --   -1.02793  -1.01292  -0.94518  -0.89675  -0.85543
 Alpha  occ. eigenvalues --   -0.82483  -0.78586  -0.77453  -0.75213  -0.72010
 Alpha  occ. eigenvalues --   -0.69997  -0.69193  -0.67662  -0.64960  -0.63740
 Alpha  occ. eigenvalues --   -0.62399  -0.60273  -0.57689  -0.56987  -0.55096
 Alpha  occ. eigenvalues --   -0.54591  -0.50716  -0.50217  -0.48687  -0.48083
 Alpha  occ. eigenvalues --   -0.47455  -0.46115  -0.46068  -0.43628  -0.41696
 Alpha  occ. eigenvalues --   -0.39873  -0.33784
 Alpha virt. eigenvalues --    0.07499   0.11761   0.17299   0.21805   0.24074
 Alpha virt. eigenvalues --    0.25641   0.27112   0.28673   0.29042   0.29585
 Alpha virt. eigenvalues --    0.30469   0.31731   0.32017   0.32758   0.33919

 Mulliken charges:
               1
     1  O   -0.499612
     2  N    0.480003
     3  O   -0.462159
     4  C    0.009711
     5  C    0.190284
     6  N   -0.780815
     7  C    0.059365
     8  H    0.179991
     9  C   -0.301148
    10  C   -0.327864
    11  C   -0.321475
    12  C   -0.306789
    13  C   -0.036942
    14  H    0.190137
    15  N   -0.511896
    16  C    0.121024
    17  H    0.292222
    18  H    0.404719
    19  H    0.189972
    20  H    0.161620
    21  H    0.174577
    22  H    0.149309
    23  H    0.199888
    24  H    0.164500
    25  H    0.187190
    26  H    0.150269
    27  H    0.243919
 Sum of Mulliken charges =  -0.00000

 Dipole moment (field-independent basis, Debye):
    X=              5.3537    Y=              4.9040    Z=              0.9188  Tot=              7.3182
 Quadrupole moment (field-independent basis, Debye-Ang):
   XX=           -105.7403   YY=            -78.9159   ZZ=            -81.9292
   XY=             -1.8397   XZ=             -0.6370   YZ=              2.6446

 Normal termination of Gaussian 16 at Fri Jun 30 15:22:03 2023.
