 Gaussian 16, Revision C.02,
 Gaussian 16:  ES64L-G16RevC.02  7-Dec-2021

 ---------------------------------------------------------
 #MP2/6-31G* SCF=Tight Opt=(ModRedun, MaxCycle=20 ) NoSymm
 ---------------------------------------------------------

 --------
 MolName:
 --------
 Symbolic Z-matrix:
 Charge =  0 Multiplicity = 1

 SCF Done:  E(RHF) =  -661.269795383     A.U. after   17 cycles
 E2 =    -0.2040008072D+01 EUMP2 =    -0.66330980345502D+03
 SCF Done:  E(RHF) =  -661.280330226     A.U. after   16 cycles
 E2 =    -0.2039057955D+01 EUMP2 =    -0.66331938818083D+03
 SCF Done:  E(RHF) =  -661.274908060     A.U. after   18 cycles
 E2 =    -0.2039945545D+01 EUMP2 =    -0.66331485360531D+03
 SCF Done:  E(RHF) =  -661.280825800     A.U. after   15 cycles
 E2 =    -0.2041123821D+01 EUMP2 =    -0.66332194962068D+03
 SCF Done:  E(RHF) =  -661.281353335     A.U. after   14 cycles
 E2 =    -0.2041140074D+01 EUMP2 =    -0.66332249340834D+03
 SCF Done:  E(RHF) =  -661.282088357     A.U. after   14 cycles
 E2 =    -0.2040799956D+01 EUMP2 =    -0.66332288831305D+03
 SCF Done:  E(RHF) =  -661.282024336     A.U. after   14 cycles
 E2 =    -0.2040934188D+01 EUMP2 =    -0.66332295852433D+03
 SCF Done:  E(RHF) =  -661.282039844     A.U. after   11 cycles
 E2 =    -0.2040924973D+01 EUMP2 =    -0.66332296481700D+03
 SCF Done:  E(RHF) =  -661.282035945     A.U. after   10 cycles
 E2 =    -0.2040929340D+01 EUMP2 =    -0.66332296528476D+03
 Optimization completed.
    -- Stationary point found.

                          Input orientation:
 ---------------------------------------------------------------------
 Center     Atomic      Atomic             Coordinates (Angstroms)
 Number     Number       Type             X           Y           Z
 ---------------------------------------------------------------------
      1          8           0       -3.617783   -0.492521   -1.231737
      2          7           0       -3.107039   -0.258825   -0.118983
      3          8           0       -3.740628   -0.160233    0.949923
      4          6           0       -1.668392   -0.017954   -0.086270
      5          6           0       -1.306166    1.258080    0.234659
      6          7           0       -0.060104    1.780831    0.275546
      7          6           0        1.202112    1.050759    0.298988
      8          1           0        1.846301    1.609669    0.994449
      9          6           0        1.920294    0.989655   -1.047669
     10          6           0        3.314633    0.386943   -0.840268
     11          6           0        3.255774   -0.975603   -0.144603
     12          6           0        2.449100   -0.916993    1.154187
     13          6           0        1.042316   -0.376446    0.870958
     14          1           0        0.449938   -0.307094    1.797025
     15          7           0        0.408440   -1.325912   -0.037260
     16          6           0       -0.837705   -1.164806   -0.351863
     17          1           0       -2.101858    1.976975    0.421046
     18          1           0       -0.013749    2.749187    0.566932
     19          1           0        1.330527    0.378606   -1.739707
     20          1           0        1.992215    1.996683   -1.476298
     21          1           0        3.828042    0.297930   -1.804572
     22          1           0        3.911349    1.081980   -0.232416
     23          1           0        2.781475   -1.705326   -0.808511
     24          1           0        4.271848   -1.333785    0.059599
     25          1           0        2.360226   -1.916765    1.591786
     26          1           0        2.951315   -0.277943    1.893449
     27          1           0       -1.304470   -1.965084   -0.933380
 ---------------------------------------------------------------------

 Alpha  occ. eigenvalues --  -20.60733 -20.60604 -15.85020 -15.62751 -15.56384
 Alpha  occ. eigenvalues --  -11.34481 -11.30150 -11.29178 -11.28701 -11.26996
 Alpha  occ. eigenvalues --  -11.23251 -11.22914 -11.22525 -11.21914  -1.57890
 Alpha  occ. eigenvalues --   -1.37665  -1.29948  -1.23112  -1.14658  -1.09750
 Alpha  occ. eigenvalues --   -1.02488  -1.00960  -0.94552  -0.89830  -0.85143
 Alpha  occ. eigenvalues --   -0.82611  -0.78299  -0.77924  -0.74872  -0.71906
 Alpha  occ. eigenvalues --   -0.71103  -0.68632  -0.67262  -0.65147  -0.63387
 Alpha  occ. eigenvalues --   -0.62019  -0.60349  -0.57436  -0.56712  -0.54886
 Alpha  occ. eigenvalues --   -0.54246  -0.51216  -0.50234  -0.49217  -0.48298
 Alpha  occ. eigenvalues --   -0.47956  -0.46199  -0.45783  -0.43887  -0.41666
 Alpha  occ. eigenvalues --   -0.39853  -0.33184
 Alpha virt. eigenvalues --    0.08328   0.10587   0.17574   0.21130   0.23343
 Alpha virt. eigenvalues --    0.24686   0.26492   0.28245   0.29278   0.29408
 Alpha virt. eigenvalues --    0.29613   0.31760   0.32068   0.32875   0.34188

 Mulliken charges:
               1
     1  O   -0.442036
     2  N    0.447115
     3  O   -0.449441
     4  C    0.048826
     5  C    0.175320
     6  N   -0.782895
     7  C    0.060475
     8  H    0.176870
     9  C   -0.299263
    10  C   -0.327853
    11  C   -0.321550
    12  C   -0.306010
    13  C   -0.044337
    14  H    0.192326
    15  N   -0.504839
    16  C    0.114445
    17  H    0.259484
    18  H    0.397859
    19  H    0.188733
    20  H    0.162988
    21  H    0.173457
    22  H    0.148504
    23  H    0.198292
    24  H    0.163691
    25  H    0.185288
    26  H    0.150429
    27  H    0.234123
 Sum of Mulliken charges =  -0.00000

 Dipole moment (field-independent basis, Debye):
    X=              4.5485    Y=              4.3370    Z=              1.2877  Tot=              6.4153
 Quadrupole moment (field-independent basis, Debye-Ang):
   XX=           -102.4969   YY=            -75.3790   ZZ=            -86.5377
   XY=             -2.0321   XZ=              0.0210   YZ=              2.3665

 Normal termination of Gaussian 16 at Fri Jun 30 11:38:48 2023.
