 Gaussian 16, Revision C.02,
 Gaussian 16:  ES64L-G16RevC.02  7-Dec-2021

 ---------------------------------------------------------
 #MP2/6-31G* SCF=Tight Opt=(ModRedun, MaxCycle=20 ) NoSymm
 ---------------------------------------------------------

 --------
 MolName:
 --------
 Symbolic Z-matrix:
 Charge =  0 Multiplicity = 1

 SCF Done:  E(RHF) =  -661.273432900     A.U. after   17 cycles
 E2 =    -0.2039455543D+01 EUMP2 =    -0.66331288844339D+03
 SCF Done:  E(RHF) =  -661.284642445     A.U. after   16 cycles
 E2 =    -0.2037951368D+01 EUMP2 =    -0.66332259381282D+03
 SCF Done:  E(RHF) =  -661.276962204     A.U. after   18 cycles
 E2 =    -0.2038999138D+01 EUMP2 =    -0.66331596134167D+03
 SCF Done:  E(RHF) =  -661.284817830     A.U. after   15 cycles
 E2 =    -0.2040038803D+01 EUMP2 =    -0.66332485663325D+03
 SCF Done:  E(RHF) =  -661.285248615     A.U. after   14 cycles
 E2 =    -0.2040156310D+01 EUMP2 =    -0.66332540492517D+03
 SCF Done:  E(RHF) =  -661.286008968     A.U. after   13 cycles
 E2 =    -0.2039715784D+01 EUMP2 =    -0.66332572475175D+03
 SCF Done:  E(RHF) =  -661.286060962     A.U. after   13 cycles
 E2 =    -0.2039716395D+01 EUMP2 =    -0.66332577735734D+03
 SCF Done:  E(RHF) =  -661.286022019     A.U. after   12 cycles
 E2 =    -0.2039763654D+01 EUMP2 =    -0.66332578567293D+03
 SCF Done:  E(RHF) =  -661.286009968     A.U. after   10 cycles
 E2 =    -0.2039776728D+01 EUMP2 =    -0.66332578669574D+03
 Optimization completed.
    -- Stationary point found.

                          Input orientation:
 ---------------------------------------------------------------------
 Center     Atomic      Atomic             Coordinates (Angstroms)
 Number     Number       Type             X           Y           Z
 ---------------------------------------------------------------------
      1          8           0       -3.590150   -0.669937   -1.186961
      2          7           0       -3.106417   -0.256279   -0.115133
      3          8           0       -3.770504    0.033321    0.899467
      4          6           0       -1.670123   -0.019844   -0.086517
      5          6           0       -1.305806    1.254135    0.246010
      6          7           0       -0.061386    1.775089    0.289258
      7          6           0        1.202696    1.047719    0.306108
      8          1           0        1.845915    1.603587    1.004903
      9          6           0        1.919608    0.996440   -1.041524
     10          6           0        3.314374    0.393148   -0.838682
     11          6           0        3.256250   -0.974062   -0.152124
     12          6           0        2.449922   -0.924544    1.147297
     13          6           0        1.042949   -0.382393    0.868568
     14          1           0        0.451738   -0.319439    1.795795
     15          7           0        0.408639   -1.326083   -0.045604
     16          6           0       -0.837281   -1.164783   -0.360125
     17          1           0       -2.102894    1.968768    0.440835
     18          1           0       -0.014225    2.747790    0.566292
     19          1           0        1.329832    0.389484   -1.737099
     20          1           0        1.991008    2.006298   -1.463655
     21          1           0        3.827165    0.310814   -1.803870
     22          1           0        3.911053    1.084438   -0.226571
     23          1           0        2.781935   -1.699460   -0.820754
     24          1           0        4.272510   -1.333212    0.049296
     25          1           0        2.361156   -1.927371    1.577780
     26          1           0        2.952323   -0.290667    1.890890
     27          1           0       -1.304266   -1.960969   -0.945880
 ---------------------------------------------------------------------

 Alpha  occ. eigenvalues --  -20.60442 -20.60311 -15.84962 -15.63012 -15.56324
 Alpha  occ. eigenvalues --  -11.34624 -11.30045 -11.29273 -11.28697 -11.27038
 Alpha  occ. eigenvalues --  -11.23346 -11.22973 -11.22557 -11.21951  -1.57741
 Alpha  occ. eigenvalues --   -1.37494  -1.30148  -1.23110  -1.14691  -1.09790
 Alpha  occ. eigenvalues --   -1.02555  -1.01036  -0.94551  -0.89805  -0.85220
 Alpha  occ. eigenvalues --   -0.82605  -0.78332  -0.77859  -0.74943  -0.71938
 Alpha  occ. eigenvalues --   -0.70892  -0.68674  -0.67425  -0.65082  -0.63479
 Alpha  occ. eigenvalues --   -0.62074  -0.60400  -0.57515  -0.56743  -0.54911
 Alpha  occ. eigenvalues --   -0.54294  -0.51068  -0.50231  -0.49187  -0.48217
 Alpha  occ. eigenvalues --   -0.47943  -0.46258  -0.45801  -0.43848  -0.41712
 Alpha  occ. eigenvalues --   -0.39822  -0.33280
 Alpha virt. eigenvalues --    0.08158   0.10908   0.17555   0.21274   0.23316
 Alpha virt. eigenvalues --    0.24715   0.26566   0.28290   0.29253   0.29523
 Alpha virt. eigenvalues --    0.29790   0.31760   0.32032   0.32845   0.34145

 Mulliken charges:
               1
     1  O   -0.446247
     2  N    0.452655
     3  O   -0.457345
     4  C    0.041598
     5  C    0.177447
     6  N   -0.782158
     7  C    0.060986
     8  H    0.177639
     9  C   -0.299916
    10  C   -0.327911
    11  C   -0.321698
    12  C   -0.305946
    13  C   -0.043747
    14  H    0.191828
    15  N   -0.505808
    16  C    0.112206
    17  H    0.265329
    18  H    0.399214
    19  H    0.189258
    20  H    0.162735
    21  H    0.173763
    22  H    0.148684
    23  H    0.198664
    24  H    0.163899
    25  H    0.185551
    26  H    0.150387
    27  H    0.238931
 Sum of Mulliken charges =  -0.00000

 Dipole moment (field-independent basis, Debye):
    X=              4.7098    Y=              4.4011    Z=              1.3020  Tot=              6.5763
 Quadrupole moment (field-independent basis, Debye-Ang):
   XX=           -103.1263   YY=            -75.6158   ZZ=            -86.0921
   XY=             -1.9201   XZ=              0.0608   YZ=              1.5517

 Normal termination of Gaussian 16 at Fri Jun 30 11:13:10 2023.
