 Gaussian 16, Revision C.02,
 Gaussian 16:  ES64L-G16RevC.02  7-Dec-2021

 ---------------------------------------------------------
 #MP2/6-31G* SCF=Tight Opt=(ModRedun, MaxCycle=20 ) NoSymm
 ---------------------------------------------------------

 --------
 MolName:
 --------
 Symbolic Z-matrix:
 Charge =  0 Multiplicity = 1

 SCF Done:  E(RHF) =  -661.276594918     A.U. after   17 cycles
 E2 =    -0.2038913716D+01 EUMP2 =    -0.66331550863386D+03
 SCF Done:  E(RHF) =  -661.289278308     A.U. after   15 cycles
 E2 =    -0.2036599758D+01 EUMP2 =    -0.66332587806634D+03
 SCF Done:  E(RHF) =  -661.286694943     A.U. after   17 cycles
 E2 =    -0.2037673788D+01 EUMP2 =    -0.66332436873074D+03
 SCF Done:  E(RHF) =  -661.286861946     A.U. after   15 cycles
 E2 =    -0.2040220011D+01 EUMP2 =    -0.66332708195697D+03
 SCF Done:  E(RHF) =  -661.289092960     A.U. after   14 cycles
 E2 =    -0.2039070620D+01 EUMP2 =    -0.66332816357996D+03
 SCF Done:  E(RHF) =  -661.289999701     A.U. after   12 cycles
 E2 =    -0.2038424802D+01 EUMP2 =    -0.66332842450314D+03
 SCF Done:  E(RHF) =  -661.290157792     A.U. after   13 cycles
 E2 =    -0.2038361337D+01 EUMP2 =    -0.66332851912862D+03
 SCF Done:  E(RHF) =  -661.290090238     A.U. after   11 cycles
 E2 =    -0.2038438767D+01 EUMP2 =    -0.66332852900533D+03
 SCF Done:  E(RHF) =  -661.289995539     A.U. after   11 cycles
 E2 =    -0.2038535705D+01 EUMP2 =    -0.66332853124348D+03
 SCF Done:  E(RHF) =  -661.289989959     A.U. after    9 cycles
 E2 =    -0.2038541401D+01 EUMP2 =    -0.66332853136025D+03
 Optimization completed.
    -- Stationary point found.

                          Input orientation:
 ---------------------------------------------------------------------
 Center     Atomic      Atomic             Coordinates (Angstroms)
 Number     Number       Type             X           Y           Z
 ---------------------------------------------------------------------
      1          8           0       -3.564181   -0.822708   -1.122946
      2          7           0       -3.107935   -0.251109   -0.113470
      3          8           0       -3.801947    0.194156    0.821880
      4          6           0       -1.672814   -0.022921   -0.075048
      5          6           0       -1.305380    1.252445    0.254096
      6          7           0       -0.061771    1.769351    0.305169
      7          6           0        1.203377    1.044155    0.314408
      8          1           0        1.846821    1.596846    1.015555
      9          6           0        1.917595    1.002392   -1.034977
     10          6           0        3.313191    0.398985   -0.838321
     11          6           0        3.257074   -0.972624   -0.160459
     12          6           0        2.452767   -0.932116    1.140570
     13          6           0        1.045122   -0.388424    0.868412
     14          1           0        0.456484   -0.331964    1.797648
     15          7           0        0.408983   -1.326162   -0.051231
     16          6           0       -0.837269   -1.164066   -0.363523
     17          1           0       -2.102995    1.966836    0.445675
     18          1           0       -0.013253    2.747547    0.562534
     19          1           0        1.326969    0.399366   -1.733196
     20          1           0        1.987795    2.014973   -1.450914
     21          1           0        3.824366    0.323274   -1.804899
     22          1           0        3.910298    1.086882   -0.222823
     23          1           0        2.782171   -1.693996   -0.833015
     24          1           0        4.273906   -1.332297    0.037006
     25          1           0        2.364672   -1.937941    1.564112
     26          1           0        2.956412   -0.303483    1.887805
     27          1           0       -1.304459   -1.955396   -0.954086
 ---------------------------------------------------------------------

 Alpha  occ. eigenvalues --  -20.60118 -20.60030 -15.84909 -15.63274 -15.56266
 Alpha  occ. eigenvalues --  -11.34753 -11.29922 -11.29362 -11.28690 -11.27071
 Alpha  occ. eigenvalues --  -11.23440 -11.23030 -11.22589 -11.21986  -1.57591
 Alpha  occ. eigenvalues --   -1.37317  -1.30343  -1.23095  -1.14711  -1.09818
 Alpha  occ. eigenvalues --   -1.02616  -1.01110  -0.94537  -0.89781  -0.85303
 Alpha  occ. eigenvalues --   -0.82585  -0.78386  -0.77763  -0.75012  -0.71970
 Alpha  occ. eigenvalues --   -0.70675  -0.68741  -0.67576  -0.65015  -0.63569
 Alpha  occ. eigenvalues --   -0.62135  -0.60423  -0.57579  -0.56786  -0.54938
 Alpha  occ. eigenvalues --   -0.54347  -0.50961  -0.50196  -0.49123  -0.48152
 Alpha  occ. eigenvalues --   -0.47878  -0.46310  -0.45823  -0.43811  -0.41729
 Alpha  occ. eigenvalues --   -0.39810  -0.33380
 Alpha virt. eigenvalues --    0.08038   0.11132   0.17520   0.21498   0.23394
 Alpha virt. eigenvalues --    0.24762   0.26642   0.28339   0.29212   0.29494
 Alpha virt. eigenvalues --    0.30138   0.31781   0.32007   0.32823   0.34101

 Mulliken charges:
               1
     1  O   -0.451428
     2  N    0.459361
     3  O   -0.465807
     4  C    0.033537
     5  C    0.179920
     6  N   -0.782222
     7  C    0.061693
     8  H    0.178330
     9  C   -0.300546
    10  C   -0.327924
    11  C   -0.321768
    12  C   -0.305962
    13  C   -0.042873
    14  H    0.191420
    15  N   -0.507063
    16  C    0.110940
    17  H    0.271541
    18  H    0.400612
    19  H    0.189674
    20  H    0.162346
    21  H    0.174035
    22  H    0.148856
    23  H    0.199018
    24  H    0.164077
    25  H    0.185838
    26  H    0.150377
    27  H    0.244017
 Sum of Mulliken charges =  -0.00000

 Dipole moment (field-independent basis, Debye):
    X=              4.8718    Y=              4.4823    Z=              1.2969  Tot=              6.7459
 Quadrupole moment (field-independent basis, Debye-Ang):
   XX=           -103.7914   YY=            -75.9935   ZZ=            -85.4904
   XY=             -1.8454   XZ=              0.0852   YZ=              0.9230

 Normal termination of Gaussian 16 at Fri Jun 30 10:47:32 2023.
