 Gaussian 16, Revision C.02,
 Gaussian 16:  ES64L-G16RevC.02  7-Dec-2021

 ---------------------------------------------------------
 #MP2/6-31G* SCF=Tight Opt=(ModRedun, MaxCycle=20 ) NoSymm
 ---------------------------------------------------------

 --------
 MolName:
 --------
 Symbolic Z-matrix:
 Charge =  0 Multiplicity = 1

 SCF Done:  E(RHF) =  -661.278833729     A.U. after   17 cycles
 E2 =    -0.2038434253D+01 EUMP2 =    -0.66331726798243D+03
 SCF Done:  E(RHF) =  -661.292562856     A.U. after   15 cycles
 E2 =    -0.2035393232D+01 EUMP2 =    -0.66332795608828D+03
 SCF Done:  E(RHF) =  -661.282509223     A.U. after   18 cycles
 E2 =    -0.2038457309D+01 EUMP2 =    -0.66332096653164D+03
 SCF Done:  E(RHF) =  -661.291434530     A.U. after   15 cycles
 E2 =    -0.2038148107D+01 EUMP2 =    -0.66332958263716D+03
 SCF Done:  E(RHF) =  -661.292517245     A.U. after   13 cycles
 E2 =    -0.2037947462D+01 EUMP2 =    -0.66333046470741D+03
 SCF Done:  E(RHF) =  -661.293400798     A.U. after   13 cycles
 E2 =    -0.2037325288D+01 EUMP2 =    -0.66333072608679D+03
 SCF Done:  E(RHF) =  -661.293629573     A.U. after   12 cycles
 E2 =    -0.2037175086D+01 EUMP2 =    -0.66333080465902D+03
 SCF Done:  E(RHF) =  -661.293581787     A.U. after   11 cycles
 E2 =    -0.2037233458D+01 EUMP2 =    -0.66333081524471D+03
 SCF Done:  E(RHF) =  -661.293504393     A.U. after   10 cycles
 E2 =    -0.2037312671D+01 EUMP2 =    -0.66333081706347D+03
 SCF Done:  E(RHF) =  -661.293502891     A.U. after    9 cycles
 E2 =    -0.2037314412D+01 EUMP2 =    -0.66333081730282D+03
 Optimization completed.
    -- Stationary point found.

                          Input orientation:
 ---------------------------------------------------------------------
 Center     Atomic      Atomic             Coordinates (Angstroms)
 Number     Number       Type             X           Y           Z
 ---------------------------------------------------------------------
      1          8           0       -3.545450   -0.955932   -1.039907
      2          7           0       -3.111376   -0.245090   -0.112688
      3          8           0       -3.830336    0.330651    0.727825
      4          6           0       -1.676023   -0.026847   -0.058391
      5          6           0       -1.304976    1.251465    0.259938
      6          7           0       -0.061843    1.763581    0.320730
      7          6           0        1.203968    1.040200    0.322665
      8          1           0        1.847903    1.590104    1.025595
      9          6           0        1.915291    1.007607   -1.028521
     10          6           0        3.311898    0.404559   -0.838036
     11          6           0        3.258330   -0.971176   -0.168356
     12          6           0        2.456293   -0.939445    1.134349
     13          6           0        1.047851   -0.394628    0.869025
     14          1           0        0.462128   -0.344332    1.800460
     15          7           0        0.409748   -1.325755   -0.056199
     16          6           0       -0.836960   -1.162375   -0.365875
     17          1           0       -2.102564    1.967594    0.442923
     18          1           0       -0.011530    2.746692    0.558905
     19          1           0        1.323995    0.408200   -1.729205
     20          1           0        1.983977    2.022803   -1.438469
     21          1           0        3.821249    0.335243   -1.806040
     22          1           0        3.909382    1.089419   -0.219541
     23          1           0        2.782949   -1.688882   -0.844450
     24          1           0        4.275874   -1.330929    0.025160
     25          1           0        2.369300   -1.948102    1.551332
     26          1           0        2.961166   -0.315685    1.884855
     27          1           0       -1.303237   -1.947942   -0.963095
 ---------------------------------------------------------------------

 Alpha  occ. eigenvalues --  -20.59794 -20.59780 -15.84868 -15.63515 -15.56219
 Alpha  occ. eigenvalues --  -11.34855 -11.29798 -11.29437 -11.28686 -11.27094
 Alpha  occ. eigenvalues --  -11.23525 -11.23083 -11.22618 -11.22016  -1.57462
 Alpha  occ. eigenvalues --   -1.37155  -1.30525  -1.23079  -1.14718  -1.09830
 Alpha  occ. eigenvalues --   -1.02671  -1.01173  -0.94511  -0.89763  -0.85380
 Alpha  occ. eigenvalues --   -0.82554  -0.78447  -0.77664  -0.75068  -0.72000
 Alpha  occ. eigenvalues --   -0.70464  -0.68846  -0.67708  -0.64948  -0.63654
 Alpha  occ. eigenvalues --   -0.62193  -0.60419  -0.57628  -0.56835  -0.54965
 Alpha  occ. eigenvalues --   -0.54403  -0.50901  -0.50141  -0.49037  -0.48119
 Alpha  occ. eigenvalues --   -0.47755  -0.46345  -0.45850  -0.43783  -0.41729
 Alpha  occ. eigenvalues --   -0.39808  -0.33483
 Alpha virt. eigenvalues --    0.07946   0.11288   0.17477   0.21695   0.23574
 Alpha virt. eigenvalues --    0.24836   0.26722   0.28386   0.29177   0.29472
 Alpha virt. eigenvalues --    0.30436   0.31818   0.32002   0.32811   0.34067

 Mulliken charges:
               1
     1  O   -0.456995
     2  N    0.467252
     3  O   -0.474289
     4  C    0.024890
     5  C    0.181850
     6  N   -0.782195
     7  C    0.062111
     8  H    0.178901
     9  C   -0.301064
    10  C   -0.327928
    11  C   -0.321786
    12  C   -0.306014
    13  C   -0.041828
    14  H    0.191070
    15  N   -0.508195
    16  C    0.110732
    17  H    0.277693
    18  H    0.401856
    19  H    0.189985
    20  H    0.161936
    21  H    0.174253
    22  H    0.149018
    23  H    0.199321
    24  H    0.164224
    25  H    0.186090
    26  H    0.150388
    27  H    0.248725
 Sum of Mulliken charges =  -0.00000

 Dipole moment (field-independent basis, Debye):
    X=              5.0241    Y=              4.5603    Z=              1.2769  Tot=              6.9042
 Quadrupole moment (field-independent basis, Debye-Ang):
   XX=           -104.4544   YY=            -76.4753   ZZ=            -84.7939
   XY=             -1.7854   XZ=              0.1086   YZ=              0.5077

 Normal termination of Gaussian 16 at Fri Jun 30 10:19:07 2023.
