 Gaussian 16, Revision C.02,
 Gaussian 16:  ES64L-G16RevC.02  7-Dec-2021

 ---------------------------------------------------------
 #MP2/6-31G* SCF=Tight Opt=(ModRedun, MaxCycle=20 ) NoSymm
 ---------------------------------------------------------

 --------
 MolName:
 --------
 Symbolic Z-matrix:
 Charge =  0 Multiplicity = 1

 SCF Done:  E(RHF) =  -661.280158723     A.U. after   17 cycles
 E2 =    -0.2038027031D+01 EUMP2 =    -0.66331818575434D+03
 SCF Done:  E(RHF) =  -661.294624291     A.U. after   15 cycles
 E2 =    -0.2034416318D+01 EUMP2 =    -0.66332904060891D+03
 SCF Done:  E(RHF) =  -661.281410036     A.U. after   18 cycles
 E2 =    -0.2037092191D+01 EUMP2 =    -0.66331850222751D+03
 SCF Done:  E(RHF) =  -661.294010262     A.U. after   15 cycles
 E2 =    -0.2036958113D+01 EUMP2 =    -0.66333096837477D+03
 SCF Done:  E(RHF) =  -661.295181878     A.U. after   13 cycles
 E2 =    -0.2036903711D+01 EUMP2 =    -0.66333208558966D+03
 SCF Done:  E(RHF) =  -661.296177823     A.U. after   13 cycles
 E2 =    -0.2036189518D+01 EUMP2 =    -0.66333236734050D+03
 SCF Done:  E(RHF) =  -661.296453548     A.U. after   13 cycles
 E2 =    -0.2036026827D+01 EUMP2 =    -0.66333248037509D+03
 SCF Done:  E(RHF) =  -661.296388756     A.U. after   11 cycles
 E2 =    -0.2036101897D+01 EUMP2 =    -0.66333249065295D+03
 SCF Done:  E(RHF) =  -661.296279139     A.U. after   11 cycles
 E2 =    -0.2036214951D+01 EUMP2 =    -0.66333249408946D+03
 SCF Done:  E(RHF) =  -661.296279149     A.U. after    9 cycles
 E2 =    -0.2036215087D+01 EUMP2 =    -0.66333249423642D+03
 Optimization completed.
    -- Stationary point found.

                          Input orientation:
 ---------------------------------------------------------------------
 Center     Atomic      Atomic             Coordinates (Angstroms)
 Number     Number       Type             X           Y           Z
 ---------------------------------------------------------------------
      1          8           0       -3.534466   -1.072800   -0.938148
      2          7           0       -3.115836   -0.238979   -0.112093
      3          8           0       -3.853506    0.448051    0.621758
      4          6           0       -1.679632   -0.029981   -0.041332
      5          6           0       -1.304446    1.251418    0.264073
      6          7           0       -0.061513    1.758456    0.335489
      7          6           0        1.204480    1.036168    0.330844
      8          1           0        1.848875    1.582739    1.036022
      9          6           0        1.913786    1.012960   -1.021643
     10          6           0        3.311169    0.409962   -0.836716
     11          6           0        3.259550   -0.970029   -0.175681
     12          6           0        2.459080   -0.947359    1.128223
     13          6           0        1.050136   -0.400991    0.869283
     14          1           0        0.466808   -0.356889    1.802577
     15          7           0        0.410265   -1.324404   -0.062587
     16          6           0       -0.836741   -1.158679   -0.370018
     17          1           0       -2.101479    1.970140    0.437093
     18          1           0       -0.009382    2.745184    0.558393
     19          1           0        1.322134    0.417622   -1.725404
     20          1           0        1.981412    2.030877   -1.425134
     21          1           0        3.819294    0.347234   -1.805806
     22          1           0        3.908799    1.091472   -0.214681
     23          1           0        2.783988   -1.683765   -0.855791
     24          1           0        4.277650   -1.330028    0.014371
     25          1           0        2.372745   -1.958934    1.538248
     26          1           0        2.964950   -0.328908    1.882471
     27          1           0       -1.301127   -1.937528   -0.975821
 ---------------------------------------------------------------------

 Alpha  occ. eigenvalues --  -20.59572 -20.59491 -15.84838 -15.63728 -15.56184
 Alpha  occ. eigenvalues --  -11.34929 -11.29687 -11.29501 -11.28682 -11.27109
 Alpha  occ. eigenvalues --  -11.23600 -11.23129 -11.22644 -11.22043  -1.57352
 Alpha  occ. eigenvalues --   -1.37009  -1.30685  -1.23063  -1.14716  -1.09830
 Alpha  occ. eigenvalues --   -1.02717  -1.01225  -0.94481  -0.89748  -0.85450
 Alpha  occ. eigenvalues --   -0.82517  -0.78505  -0.77573  -0.75111  -0.72024
 Alpha  occ. eigenvalues --   -0.70258  -0.68990  -0.67811  -0.64888  -0.63723
 Alpha  occ. eigenvalues --   -0.62243  -0.60395  -0.57664  -0.56885  -0.54990
 Alpha  occ. eigenvalues --   -0.54456  -0.50870  -0.50088  -0.48938  -0.48110
 Alpha  occ. eigenvalues --   -0.47603  -0.46356  -0.45880  -0.43765  -0.41722
 Alpha  occ. eigenvalues --   -0.39812  -0.33584
 Alpha virt. eigenvalues --    0.07852   0.11414   0.17434   0.21816   0.23799
 Alpha virt. eigenvalues --    0.24964   0.26808   0.28434   0.29145   0.29472
 Alpha virt. eigenvalues --    0.30649   0.31848   0.32018   0.32806   0.34042

 Mulliken charges:
               1
     1  O   -0.462474
     2  N    0.475972
     3  O   -0.482539
     4  C    0.016060
     5  C    0.183169
     6  N   -0.781860
     7  C    0.062185
     8  H    0.179361
     9  C   -0.301444
    10  C   -0.327931
    11  C   -0.321747
    12  C   -0.306104
    13  C   -0.040716
    14  H    0.190775
    15  N   -0.509061
    16  C    0.111594
    17  H    0.283467
    18  H    0.402910
    19  H    0.190194
    20  H    0.161576
    21  H    0.174424
    22  H    0.149159
    23  H    0.199563
    24  H    0.164339
    25  H    0.186316
    26  H    0.150416
    27  H    0.252394
 Sum of Mulliken charges =  -0.00000

 Dipole moment (field-independent basis, Debye):
    X=              5.1613    Y=              4.6289    Z=              1.2506  Tot=              7.0449
 Quadrupole moment (field-independent basis, Debye-Ang):
   XX=           -105.0728   YY=            -77.0298   ZZ=            -84.0462
   XY=             -1.7416   XZ=              0.1343   YZ=              0.3160

 Normal termination of Gaussian 16 at Fri Jun 30 09:52:46 2023.
