 Gaussian 16, Revision C.02,
 Gaussian 16:  ES64L-G16RevC.02  7-Dec-2021

 ---------------------------------------------------------
 #MP2/6-31G* SCF=Tight Opt=(ModRedun, MaxCycle=20 ) NoSymm
 ---------------------------------------------------------

 --------
 MolName:
 --------
 Symbolic Z-matrix:
 Charge =  0 Multiplicity = 1

 SCF Done:  E(RHF) =  -661.280801011     A.U. after   16 cycles
 E2 =    -0.2037688607D+01 EUMP2 =    -0.66331848961766D+03
 SCF Done:  E(RHF) =  -661.296256308     A.U. after   15 cycles
 E2 =    -0.2033597531D+01 EUMP2 =    -0.66332985383836D+03
 SCF Done:  E(RHF) =  -661.284273871     A.U. after   18 cycles
 E2 =    -0.2035687318D+01 EUMP2 =    -0.66331996118882D+03
 SCF Done:  E(RHF) =  -661.295416753     A.U. after   15 cycles
 E2 =    -0.2036077090D+01 EUMP2 =    -0.66333149384375D+03
 SCF Done:  E(RHF) =  -661.297112787     A.U. after   13 cycles
 E2 =    -0.2036045518D+01 EUMP2 =    -0.66333315830488D+03
 SCF Done:  E(RHF) =  -661.298168985     A.U. after   13 cycles
 E2 =    -0.2035286550D+01 EUMP2 =    -0.66333345553560D+03
 SCF Done:  E(RHF) =  -661.298455889     A.U. after   12 cycles
 E2 =    -0.2035113141D+01 EUMP2 =    -0.66333356902992D+03
 SCF Done:  E(RHF) =  -661.298369640     A.U. after   11 cycles
 E2 =    -0.2035212640D+01 EUMP2 =    -0.66333358228020D+03
 SCF Done:  E(RHF) =  -661.298295341     A.U. after   11 cycles
 E2 =    -0.2035290644D+01 EUMP2 =    -0.66333358598569D+03
 SCF Done:  E(RHF) =  -661.298288360     A.U. after   10 cycles
 E2 =    -0.2035297903D+01 EUMP2 =    -0.66333358626355D+03
 Optimization completed.
    -- Stationary point found.

                          Input orientation:
 ---------------------------------------------------------------------
 Center     Atomic      Atomic             Coordinates (Angstroms)
 Number     Number       Type             X           Y           Z
 ---------------------------------------------------------------------
      1          8           0       -3.528571   -1.177132   -0.816396
      2          7           0       -3.120280   -0.234603   -0.111183
      3          8           0       -3.871803    0.547812    0.503126
      4          6           0       -1.683169   -0.031590   -0.026738
      5          6           0       -1.303864    1.252261    0.266819
      6          7           0       -0.060871    1.754273    0.348754
      7          6           0        1.204904    1.032298    0.338208
      8          1           0        1.849726    1.575140    1.045915
      9          6           0        1.912800    1.018409   -1.015176
     10          6           0        3.310719    0.415142   -0.835269
     11          6           0        3.260537   -0.969117   -0.183086
     12          6           0        2.461127   -0.955497    1.121635
     13          6           0        1.051932   -0.407338    0.868568
     14          1           0        0.470501   -0.369306    1.803375
     15          7           0        0.410504   -1.322291   -0.070555
     16          6           0       -0.836615   -1.153290   -0.375869
     17          1           0       -2.100121    1.973652    0.430317
     18          1           0       -0.006812    2.743190    0.561891
     19          1           0        1.320982    0.427415   -1.722361
     20          1           0        1.979734    2.039050   -1.411976
     21          1           0        3.818016    0.359012   -1.805185
     22          1           0        3.908389    1.093078   -0.209390
     23          1           0        2.784963   -1.678702   -0.867454
     24          1           0        4.279051   -1.329520    0.003896
     25          1           0        2.375120   -1.969945    1.524603
     26          1           0        2.967801   -0.342509    1.879816
     27          1           0       -1.298700   -1.924902   -0.991315
 ---------------------------------------------------------------------

 Alpha  occ. eigenvalues --  -20.59407 -20.59231 -15.84814 -15.63905 -15.56160
 Alpha  occ. eigenvalues --  -11.34975 -11.29602 -11.29552 -11.28676 -11.27120
 Alpha  occ. eigenvalues --  -11.23660 -11.23166 -11.22666 -11.22065  -1.57264
 Alpha  occ. eigenvalues --   -1.36884  -1.30815  -1.23052  -1.14709  -1.09822
 Alpha  occ. eigenvalues --   -1.02755  -1.01266  -0.94456  -0.89732  -0.85507
 Alpha  occ. eigenvalues --   -0.82480  -0.78556  -0.77497  -0.75141  -0.72037
 Alpha  occ. eigenvalues --   -0.70053  -0.69171  -0.67879  -0.64847  -0.63769
 Alpha  occ. eigenvalues --   -0.62285  -0.60360  -0.57687  -0.56931  -0.55015
 Alpha  occ. eigenvalues --   -0.54504  -0.50849  -0.50052  -0.48834  -0.48112
 Alpha  occ. eigenvalues --   -0.47466  -0.46333  -0.45918  -0.43749  -0.41713
 Alpha  occ. eigenvalues --   -0.39821  -0.33679
 Alpha virt. eigenvalues --    0.07743   0.11532   0.17395   0.21872   0.23981
 Alpha virt. eigenvalues --    0.25162   0.26903   0.28487   0.29113   0.29497
 Alpha virt. eigenvalues --    0.30775   0.31859   0.32045   0.32803   0.34021

 Mulliken charges:
               1
     1  O   -0.467055
     2  N    0.484576
     3  O   -0.490366
     4  C    0.007752
     5  C    0.184349
     6  N   -0.781334
     7  C    0.061932
     8  H    0.179712
     9  C   -0.301665
    10  C   -0.327945
    11  C   -0.321676
    12  C   -0.306225
    13  C   -0.039596
    14  H    0.190515
    15  N   -0.509633
    16  C    0.113315
    17  H    0.288587
    18  H    0.403757
    19  H    0.190322
    20  H    0.161306
    21  H    0.174549
    22  H    0.149273
    23  H    0.199746
    24  H    0.164431
    25  H    0.186520
    26  H    0.150448
    27  H    0.254405
 Sum of Mulliken charges =  -0.00000

 Dipole moment (field-independent basis, Debye):
    X=              5.2778    Y=              4.6890    Z=              1.2258  Tot=              7.1655
 Quadrupole moment (field-independent basis, Debye-Ang):
   XX=           -105.6063   YY=            -77.6329   ZZ=            -83.2829
   XY=             -1.7249   XZ=              0.1559   YZ=              0.3541

 Normal termination of Gaussian 16 at Fri Jun 30 09:27:47 2023.
