 Gaussian 16, Revision C.02,
 Gaussian 16:  ES64L-G16RevC.02  7-Dec-2021

 ---------------------------------------------------------
 #MP2/6-31G* SCF=Tight Opt=(ModRedun, MaxCycle=20 ) NoSymm
 ---------------------------------------------------------

 --------
 MolName:
 --------
 Symbolic Z-matrix:
 Charge =  0 Multiplicity = 1

 SCF Done:  E(RHF) =  -661.281027097     A.U. after   16 cycles
 E2 =    -0.2037434822D+01 EUMP2 =    -0.66331846191921D+03
 SCF Done:  E(RHF) =  -661.297527388     A.U. after   15 cycles
 E2 =    -0.2032978406D+01 EUMP2 =    -0.66333050579421D+03
 SCF Done:  E(RHF) =  -661.288506816     A.U. after   17 cycles
 E2 =    -0.2034777766D+01 EUMP2 =    -0.66332328458144D+03
 SCF Done:  E(RHF) =  -661.295723522     A.U. after   15 cycles
 E2 =    -0.2035476322D+01 EUMP2 =    -0.66333119984440D+03
 SCF Done:  E(RHF) =  -661.298424088     A.U. after   14 cycles
 E2 =    -0.2035398705D+01 EUMP2 =    -0.66333382279288D+03
 SCF Done:  E(RHF) =  -661.299387170     A.U. after   13 cycles
 E2 =    -0.2034727018D+01 EUMP2 =    -0.66333411418786D+03
 SCF Done:  E(RHF) =  -661.299716960     A.U. after   12 cycles
 E2 =    -0.2034486211D+01 EUMP2 =    -0.66333420317064D+03
 SCF Done:  E(RHF) =  -661.299664977     A.U. after   11 cycles
 E2 =    -0.2034553553D+01 EUMP2 =    -0.66333421853032D+03
 SCF Done:  E(RHF) =  -661.299610117     A.U. after   11 cycles
 E2 =    -0.2034612688D+01 EUMP2 =    -0.66333422280458D+03
 SCF Done:  E(RHF) =  -661.299596272     A.U. after    9 cycles
 E2 =    -0.2034626661D+01 EUMP2 =    -0.66333422293327D+03
 Optimization completed.
    -- Stationary point found.

                          Input orientation:
 ---------------------------------------------------------------------
 Center     Atomic      Atomic             Coordinates (Angstroms)
 Number     Number       Type             X           Y           Z
 ---------------------------------------------------------------------
      1          8           0       -3.522244   -1.269813   -0.674118
      2          7           0       -3.123138   -0.232681   -0.110728
      3          8           0       -3.886108    0.629831    0.366584
      4          6           0       -1.685866   -0.030594   -0.016308
      5          6           0       -1.302935    1.254566    0.269342
      6          7           0       -0.059595    1.751617    0.361229
      7          6           0        1.205444    1.028871    0.345270
      8          1           0        1.850863    1.567367    1.055773
      9          6           0        1.912359    1.023883   -1.008721
     10          6           0        3.310471    0.419660   -0.833574
     11          6           0        3.260947   -0.968778   -0.190284
     12          6           0        2.462375   -0.963795    1.115042
     13          6           0        1.053173   -0.413418    0.867437
     14          1           0        0.473290   -0.381138    1.803474
     15          7           0        0.410101   -1.319864   -0.078763
     16          6           0       -0.836962   -1.146832   -0.381676
     17          1           0       -2.098317    1.978400    0.424731
     18          1           0       -0.003546    2.740962    0.572251
     19          1           0        1.320204    0.437557   -1.719428
     20          1           0        1.979103    2.047157   -1.398789
     21          1           0        3.817133    0.369879   -1.804164
     22          1           0        3.908408    1.093689   -0.203744
     23          1           0        2.785161   -1.673978   -0.878966
     24          1           0        4.279665   -1.330061   -0.006170
     25          1           0        2.376256   -1.980988    1.511049
     26          1           0        2.969928   -0.356375    1.877128
     27          1           0       -1.297141   -1.911116   -1.006876
 ---------------------------------------------------------------------

 Alpha  occ. eigenvalues --  -20.59290 -20.59033 -15.84789 -15.64041 -15.56140
 Alpha  occ. eigenvalues --  -11.35002 -11.29591 -11.29546 -11.28666 -11.27128
 Alpha  occ. eigenvalues --  -11.23703 -11.23193 -11.22683 -11.22081  -1.57193
 Alpha  occ. eigenvalues --   -1.36786  -1.30914  -1.23049  -1.14702  -1.09813
 Alpha  occ. eigenvalues --   -1.02784  -1.01294  -0.94448  -0.89714  -0.85548
 Alpha  occ. eigenvalues --   -0.82451  -0.78592  -0.77440  -0.75167  -0.72039
 Alpha  occ. eigenvalues --   -0.69841  -0.69378  -0.67906  -0.64835  -0.63791
 Alpha  occ. eigenvalues --   -0.62320  -0.60323  -0.57700  -0.56970  -0.55038
 Alpha  occ. eigenvalues --   -0.54542  -0.50827  -0.50041  -0.48736  -0.48117
 Alpha  occ. eigenvalues --   -0.47377  -0.46276  -0.45961  -0.43732  -0.41705
 Alpha  occ. eigenvalues --   -0.39828  -0.33760
 Alpha virt. eigenvalues --    0.07621   0.11651   0.17359   0.21885   0.24083
 Alpha virt. eigenvalues --    0.25395   0.27003   0.28556   0.29082   0.29545
 Alpha virt. eigenvalues --    0.30818   0.31855   0.32058   0.32796   0.33999

 Mulliken charges:
               1
     1  O   -0.469694
     2  N    0.491441
     3  O   -0.497465
     4  C    0.001182
     5  C    0.185877
     6  N   -0.780749
     7  C    0.061464
     8  H    0.179949
     9  C   -0.301722
    10  C   -0.327958
    11  C   -0.321589
    12  C   -0.306375
    13  C   -0.038554
    14  H    0.190246
    15  N   -0.510100
    16  C    0.115597
    17  H    0.292627
    18  H    0.404387
    19  H    0.190373
    20  H    0.161178
    21  H    0.174631
    22  H    0.149345
    23  H    0.199871
    24  H    0.164495
    25  H    0.186717
    26  H    0.150451
    27  H    0.254376
 Sum of Mulliken charges =  -0.00000

 Dipole moment (field-independent basis, Debye):
    X=              5.3654    Y=              4.7419    Z=              1.2176  Tot=              7.2633
 Quadrupole moment (field-independent basis, Debye-Ang):
   XX=           -105.9949   YY=            -78.2535   ZZ=            -82.5411
   XY=             -1.7339   XZ=              0.1388   YZ=              0.6479

 Normal termination of Gaussian 16 at Fri Jun 30 09:03:37 2023.
