 Gaussian 16, Revision C.02,
 Gaussian 16:  ES64L-G16RevC.02  7-Dec-2021

 ---------------------------------------------------------
 #MP2/6-31G* SCF=Tight Opt=(ModRedun, MaxCycle=20 ) NoSymm
 ---------------------------------------------------------

 --------
 MolName:
 --------
 Symbolic Z-matrix:
 Charge =  0 Multiplicity = 1

 SCF Done:  E(RHF) =  -661.281041640     A.U. after   16 cycles
 E2 =    -0.2037296302D+01 EUMP2 =    -0.66331833794178D+03
 SCF Done:  E(RHF) =  -661.298225643     A.U. after   15 cycles
 E2 =    -0.2032661683D+01 EUMP2 =    -0.66333088732620D+03
 SCF Done:  E(RHF) =  -661.296767973     A.U. after   15 cycles
 E2 =    -0.2033710055D+01 EUMP2 =    -0.66333047802872D+03
 SCF Done:  E(RHF) =  -661.291200105     A.U. after   16 cycles
 E2 =    -0.2035976516D+01 EUMP2 =    -0.66332717662167D+03
 SCF Done:  E(RHF) =  -661.289688790     A.U. after   15 cycles
 E2 =    -0.2036171617D+01 EUMP2 =    -0.66332586040706D+03
 SCF Done:  E(RHF) =  -661.298564956     A.U. after   11 cycles
 E2 =    -0.2033438695D+01 EUMP2 =    -0.66333200365143D+03
 SCF Done:  E(RHF) =  -661.299521576     A.U. after   15 cycles
 E2 =    -0.2034543366D+01 EUMP2 =    -0.66333406494191D+03
 SCF Done:  E(RHF) =  -661.299862347     A.U. after   13 cycles
 E2 =    -0.2034574028D+01 EUMP2 =    -0.66333443637504D+03
 SCF Done:  E(RHF) =  -661.300334314     A.U. after   12 cycles
 E2 =    -0.2034189848D+01 EUMP2 =    -0.66333452416176D+03
 SCF Done:  E(RHF) =  -661.300317981     A.U. after   11 cycles
 E2 =    -0.2034233293D+01 EUMP2 =    -0.66333455127416D+03
 SCF Done:  E(RHF) =  -661.300293983     A.U. after   11 cycles
 E2 =    -0.2034261238D+01 EUMP2 =    -0.66333455522131D+03
 SCF Done:  E(RHF) =  -661.300289127     A.U. after   10 cycles
 E2 =    -0.2034266738D+01 EUMP2 =    -0.66333455586490D+03
 Optimization completed.
    -- Stationary point found.

                          Input orientation:
 ---------------------------------------------------------------------
 Center     Atomic      Atomic             Coordinates (Angstroms)
 Number     Number       Type             X           Y           Z
 ---------------------------------------------------------------------
      1          8           0       -3.513850   -1.346514   -0.511717
      2          7           0       -3.123294   -0.232561   -0.112497
      3          8           0       -3.894853    0.692956    0.206153
      4          6           0       -1.686973   -0.027076   -0.011607
      5          6           0       -1.302047    1.257967    0.272131
      6          7           0       -0.058170    1.750616    0.373789
      7          6           0        1.205715    1.026127    0.352365
      8          1           0        1.852137    1.559690    1.065623
      9          6           0        1.911247    1.029783   -1.002387
     10          6           0        3.309401    0.424166   -0.832593
     11          6           0        3.260364   -0.968420   -0.198267
     12          6           0        2.463161   -0.971773    1.107894
     13          6           0        1.053923   -0.419328    0.865891
     14          1           0        0.475619   -0.392839    1.803115
     15          7           0        0.409193   -1.318010   -0.086434
     16          6           0       -0.837839   -1.140940   -0.386060
     17          1           0       -2.096903    1.983566    0.421340
     18          1           0       -0.000354    2.738315    0.592103
     19          1           0        1.318307    0.448281   -1.716354
     20          1           0        1.977832    2.055610   -1.385724
     21          1           0        3.814960    0.380602   -1.804051
     22          1           0        3.908117    1.094032   -0.199081
     23          1           0        2.783808   -1.669062   -0.891018
     24          1           0        4.279222   -1.330957   -0.017443
     25          1           0        2.377098   -1.991532    1.497289
     26          1           0        2.971762   -0.369604    1.873444
     27          1           0       -1.297595   -1.899094   -1.018944
 ---------------------------------------------------------------------

 Alpha  occ. eigenvalues --  -20.59232 -20.58918 -15.84757 -15.64119 -15.56124
 Alpha  occ. eigenvalues --  -11.35013 -11.29615 -11.29533 -11.28648 -11.27132
 Alpha  occ. eigenvalues --  -11.23725 -11.23206 -11.22691 -11.22089  -1.57144
 Alpha  occ. eigenvalues --   -1.36726  -1.30968  -1.23056  -1.14699  -1.09811
 Alpha  occ. eigenvalues --   -1.02801  -1.01307  -0.94459  -0.89697  -0.85566
 Alpha  occ. eigenvalues --   -0.82441  -0.78610  -0.77411  -0.75188  -0.72030
 Alpha  occ. eigenvalues --   -0.69622  -0.69597  -0.67883  -0.64857  -0.63792
 Alpha  occ. eigenvalues --   -0.62346  -0.60296  -0.57703  -0.56995  -0.55060
 Alpha  occ. eigenvalues --   -0.54569  -0.50794  -0.50062  -0.48670  -0.48115
 Alpha  occ. eigenvalues --   -0.47350  -0.46201  -0.46007  -0.43707  -0.41698
 Alpha  occ. eigenvalues --   -0.39838  -0.33816
 Alpha virt. eigenvalues --    0.07514   0.11752   0.17327   0.21873   0.24120
 Alpha virt. eigenvalues --    0.25589   0.27090   0.28640   0.29058   0.29605
 Alpha virt. eigenvalues --    0.30777   0.31834   0.32052   0.32781   0.33974

 Mulliken charges:
               1
     1  O   -0.469503
     2  N    0.494096
     3  O   -0.502720
     4  C   -0.001600
     5  C    0.187638
     6  N   -0.780366
     7  C    0.060839
     8  H    0.180068
     9  C   -0.301602
    10  C   -0.327964
    11  C   -0.321527
    12  C   -0.306531
    13  C   -0.037686
    14  H    0.190009
    15  N   -0.510603
    16  C    0.118182
    17  H    0.295072
    18  H    0.404756
    19  H    0.190318
    20  H    0.161235
    21  H    0.174658
    22  H    0.149370
    23  H    0.199940
    24  H    0.164534
    25  H    0.186908
    26  H    0.150401
    27  H    0.252081
 Sum of Mulliken charges =  -0.00000

 Dipole moment (field-independent basis, Debye):
    X=              5.4125    Y=              4.7803    Z=              1.2390  Tot=              7.3268
 Quadrupole moment (field-independent basis, Debye-Ang):
   XX=           -106.1799   YY=            -78.8391   ZZ=            -81.8872
   XY=             -1.7534   XZ=              0.0396   YZ=              1.2188

 Normal termination of Gaussian 16 at Fri Jun 30 08:38:46 2023.
