 Gaussian 16, Revision C.02,
 Gaussian 16:  ES64L-G16RevC.02  7-Dec-2021

 ---------------------------------------------------------
 #MP2/6-31G* SCF=Tight Opt=(ModRedun, MaxCycle=20 ) NoSymm
 ---------------------------------------------------------

 --------
 MolName:
 --------
 Symbolic Z-matrix:
 Charge =  0 Multiplicity = 1

 SCF Done:  E(RHF) =  -661.280970197     A.U. after   16 cycles
 E2 =    -0.2037283515D+01 EUMP2 =    -0.66331825371173D+03
 SCF Done:  E(RHF) =  -661.298239852     A.U. after   15 cycles
 E2 =    -0.2032675850D+01 EUMP2 =    -0.66333091570165D+03
 SCF Done:  E(RHF) =  -661.298949605     A.U. after   15 cycles
 E2 =    -0.2033475694D+01 EUMP2 =    -0.66333242529873D+03
 SCF Done:  E(RHF) =  -661.289366719     A.U. after   17 cycles
 E2 =    -0.2036481811D+01 EUMP2 =    -0.66332584853020D+03
 SCF Done:  E(RHF) =  -661.299280756     A.U. after   14 cycles
 E2 =    -0.2035016524D+01 EUMP2 =    -0.66333429727984D+03
 SCF Done:  E(RHF) =  -661.299941613     A.U. after   13 cycles
 E2 =    -0.2034610913D+01 EUMP2 =    -0.66333455252575D+03
 SCF Done:  E(RHF) =  -661.300455129     A.U. after   12 cycles
 E2 =    -0.2034174661D+01 EUMP2 =    -0.66333462979003D+03
 SCF Done:  E(RHF) =  -661.300483675     A.U. after   11 cycles
 E2 =    -0.2034163062D+01 EUMP2 =    -0.66333464673716D+03
 SCF Done:  E(RHF) =  -661.300406476     A.U. after   10 cycles
 E2 =    -0.2034242750D+01 EUMP2 =    -0.66333464922661D+03
 SCF Done:  E(RHF) =  -661.300360177     A.U. after    9 cycles
 E2 =    -0.2034289222D+01 EUMP2 =    -0.66333464939887D+03
 Optimization completed.
    -- Stationary point found.

                          Input orientation:
 ---------------------------------------------------------------------
 Center     Atomic      Atomic             Coordinates (Angstroms)
 Number     Number       Type             X           Y           Z
 ---------------------------------------------------------------------
      1          8           0       -3.506716   -1.390407   -0.371119
      2          7           0       -3.121085   -0.232277   -0.118515
      3          8           0       -3.895437    0.728679    0.055703
      4          6           0       -1.686637   -0.023753   -0.009750
      5          6           0       -1.301402    1.260704    0.275274
      6          7           0       -0.057162    1.750208    0.386354
      7          6           0        1.205637    1.024004    0.359327
      8          1           0        1.853379    1.552887    1.074781
      9          6           0        1.909156    1.035128   -0.996485
     10          6           0        3.307518    0.428433   -0.832420
     11          6           0        3.259482   -0.967693   -0.205889
     12          6           0        2.464466   -0.978343    1.101557
     13          6           0        1.054757   -0.424613    0.865099
     14          1           0        0.478199   -0.403299    1.803509
     15          7           0        0.408230   -1.317917   -0.091168
     16          6           0       -0.839105   -1.138074   -0.386566
     17          1           0       -2.096162    1.987612    0.418876
     18          1           0        0.001735    2.735383    0.615491
     19          1           0        1.314901    0.457705   -1.712689
     20          1           0        1.975166    2.063069   -1.374186
     21          1           0        3.811497    0.390358   -1.804944
     22          1           0        3.907311    1.094703   -0.196119
     23          1           0        2.781791   -1.664434   -0.901778
     24          1           0        4.278636   -1.331242   -0.028746
     25          1           0        2.378999   -2.000287    1.485361
     26          1           0        2.974425   -0.380538    1.869629
     27          1           0       -1.300603   -1.892996   -1.022577
 ---------------------------------------------------------------------

 Alpha  occ. eigenvalues --  -20.59237 -20.58904 -15.84722 -15.64136 -15.56111
 Alpha  occ. eigenvalues --  -11.35018 -11.29622 -11.29559 -11.28627 -11.27134
 Alpha  occ. eigenvalues --  -11.23728 -11.23208 -11.22692 -11.22089  -1.57116
 Alpha  occ. eigenvalues --   -1.36709  -1.30978  -1.23065  -1.14703  -1.09819
 Alpha  occ. eigenvalues --   -1.02805  -1.01307  -0.94482  -0.89685  -0.85566
 Alpha  occ. eigenvalues --   -0.82448  -0.78609  -0.77411  -0.75203  -0.72020
 Alpha  occ. eigenvalues --   -0.69771  -0.69438  -0.67820  -0.64892  -0.63777
 Alpha  occ. eigenvalues --   -0.62368  -0.60282  -0.57700  -0.57001  -0.55077
 Alpha  occ. eigenvalues --   -0.54582  -0.50762  -0.50108  -0.48656  -0.48102
 Alpha  occ. eigenvalues --   -0.47372  -0.46146  -0.46044  -0.43678  -0.41696
 Alpha  occ. eigenvalues --   -0.39847  -0.33829
 Alpha virt. eigenvalues --    0.07464   0.11799   0.17307   0.21848   0.24113
 Alpha virt. eigenvalues --    0.25665   0.27134   0.28694   0.29044   0.29635
 Alpha virt. eigenvalues --    0.30683   0.31797   0.32036   0.32767   0.33950

 Mulliken charges:
               1
     1  O   -0.467238
     2  N    0.491297
     3  O   -0.504056
     4  C    0.000470
     5  C    0.188878
     6  N   -0.780287
     7  C    0.060262
     8  H    0.180076
     9  C   -0.301429
    10  C   -0.327940
    11  C   -0.321489
    12  C   -0.306654
    13  C   -0.037181
    14  H    0.189957
    15  N   -0.511216
    16  C    0.120002
    17  H    0.295297
    18  H    0.404873
    19  H    0.190186
    20  H    0.161380
    21  H    0.174647
    22  H    0.149361
    23  H    0.199935
    24  H    0.164540
    25  H    0.187062
    26  H    0.150347
    27  H    0.248922
 Sum of Mulliken charges =  -0.00000

 Dipole moment (field-independent basis, Debye):
    X=              5.4157    Y=              4.7961    Z=              1.2813  Tot=              7.3467
 Quadrupole moment (field-independent basis, Debye-Ang):
   XX=           -106.1396   YY=            -79.2243   ZZ=            -81.5016
   XY=             -1.7660   XZ=             -0.1322   YZ=              1.8555

 Normal termination of Gaussian 16 at Fri Jun 30 00:31:46 2023.
