 Gaussian 16, Revision C.02,
 Gaussian 16:  ES64L-G16RevC.02  7-Dec-2021

 ---------------------------------------------------------
 #MP2/6-31G* SCF=Tight Opt=(ModRedun, MaxCycle=20 ) NoSymm
 ---------------------------------------------------------

 --------
 MolName:
 --------
 Symbolic Z-matrix:
 Charge =  0 Multiplicity = 1

 SCF Done:  E(RHF) =  -661.280943841     A.U. after   16 cycles
 E2 =    -0.2037292542D+01 EUMP2 =    -0.66331823638363D+03
 SCF Done:  E(RHF) =  -661.298174419     A.U. after   15 cycles
 E2 =    -0.2032710388D+01 EUMP2 =    -0.66333088480789D+03
 SCF Done:  E(RHF) =  -661.297436322     A.U. after   15 cycles
 E2 =    -0.2033726385D+01 EUMP2 =    -0.66333116270790D+03
 SCF Done:  E(RHF) =  -661.291573658     A.U. after   17 cycles
 E2 =    -0.2036110824D+01 EUMP2 =    -0.66332768448174D+03
 SCF Done:  E(RHF) =  -661.298748331     A.U. after   15 cycles
 E2 =    -0.2035181553D+01 EUMP2 =    -0.66333392988470D+03
 SCF Done:  E(RHF) =  -661.299813802     A.U. after   14 cycles
 E2 =    -0.2034709550D+01 EUMP2 =    -0.66333452335216D+03
 SCF Done:  E(RHF) =  -661.300378998     A.U. after   12 cycles
 E2 =    -0.2034235491D+01 EUMP2 =    -0.66333461448850D+03
 SCF Done:  E(RHF) =  -661.300431609     A.U. after   12 cycles
 E2 =    -0.2034208070D+01 EUMP2 =    -0.66333463967954D+03
 SCF Done:  E(RHF) =  -661.300360988     A.U. after   11 cycles
 E2 =    -0.2034282801D+01 EUMP2 =    -0.66333464378944D+03
 SCF Done:  E(RHF) =  -661.300316514     A.U. after    9 cycles
 E2 =    -0.2034327505D+01 EUMP2 =    -0.66333464401900D+03
 Optimization completed.
    -- Stationary point found.

                          Input orientation:
 ---------------------------------------------------------------------
 Center     Atomic      Atomic             Coordinates (Angstroms)
 Number     Number       Type             X           Y           Z
 ---------------------------------------------------------------------
      1          8           0       -3.505781   -1.395811   -0.344825
      2          7           0       -3.120414   -0.231219   -0.122953
      3          8           0       -3.894330    0.735292    0.019645
      4          6           0       -1.686499   -0.022712   -0.010638
      5          6           0       -1.301287    1.261521    0.275136
      6          7           0       -0.056965    1.750202    0.389112
      7          6           0        1.205484    1.023402    0.361300
      8          1           0        1.853274    1.551007    1.077625
      9          6           0        1.909245    1.036274   -0.994396
     10          6           0        3.307508    0.429159   -0.830996
     11          6           0        3.259203   -0.967826   -0.206424
     12          6           0        2.464020   -0.980165    1.100911
     13          6           0        1.054355   -0.426000    0.865031
     14          1           0        0.477715   -0.405887    1.803404
     15          7           0        0.407741   -1.318031   -0.092402
     16          6           0       -0.839525   -1.137420   -0.387327
     17          1           0       -2.095973    1.988878    0.417031
     18          1           0        0.002141    2.734685    0.621107
     19          1           0        1.314986    0.459938   -1.711473
     20          1           0        1.975436    2.064724   -1.370660
     21          1           0        3.811628    0.392379   -1.803499
     22          1           0        3.907299    1.094456   -0.193677
     23          1           0        2.781524   -1.663542   -0.903339
     24          1           0        4.278290   -1.331745   -0.029651
     25          1           0        2.378407   -2.002614    1.483330
     26          1           0        2.973962   -0.383458    1.869850
     27          1           0       -1.301423   -1.891507   -1.024212
 ---------------------------------------------------------------------

 Alpha  occ. eigenvalues --  -20.59244 -20.58911 -15.84714 -15.64134 -15.56108
 Alpha  occ. eigenvalues --  -11.35018 -11.29622 -11.29568 -11.28622 -11.27134
 Alpha  occ. eigenvalues --  -11.23728 -11.23207 -11.22691 -11.22089  -1.57113
 Alpha  occ. eigenvalues --   -1.36711  -1.30975  -1.23066  -1.14704  -1.09821
 Alpha  occ. eigenvalues --   -1.02804  -1.01306  -0.94487  -0.89682  -0.85564
 Alpha  occ. eigenvalues --   -0.82451  -0.78607  -0.77414  -0.75205  -0.72018
 Alpha  occ. eigenvalues --   -0.69805  -0.69401  -0.67802  -0.64901  -0.63773
 Alpha  occ. eigenvalues --   -0.62372  -0.60279  -0.57699  -0.57001  -0.55080
 Alpha  occ. eigenvalues --   -0.54584  -0.50755  -0.50121  -0.48658  -0.48099
 Alpha  occ. eigenvalues --   -0.47381  -0.46137  -0.46052  -0.43671  -0.41695
 Alpha  occ. eigenvalues --   -0.39850  -0.33827
 Alpha virt. eigenvalues --    0.07461   0.11804   0.17304   0.21842   0.24108
 Alpha virt. eigenvalues --    0.25669   0.27139   0.28701   0.29042   0.29637
 Alpha virt. eigenvalues --    0.30657   0.31788   0.32033   0.32764   0.33945

 Mulliken charges:
               1
     1  O   -0.466570
     2  N    0.490140
     3  O   -0.503903
     4  C    0.001414
     5  C    0.189080
     6  N   -0.780301
     7  C    0.060142
     8  H    0.180066
     9  C   -0.301389
    10  C   -0.327933
    11  C   -0.321481
    12  C   -0.306682
    13  C   -0.037107
    14  H    0.189966
    15  N   -0.511361
    16  C    0.120292
    17  H    0.295119
    18  H    0.404875
    19  H    0.190151
    20  H    0.161417
    21  H    0.174642
    22  H    0.149357
    23  H    0.199924
    24  H    0.164538
    25  H    0.187091
    26  H    0.150337
    27  H    0.248176
 Sum of Mulliken charges =  -0.00000

 Dipole moment (field-independent basis, Debye):
    X=              5.4121    Y=              4.7955    Z=              1.2971  Tot=              7.3465
 Quadrupole moment (field-independent basis, Debye-Ang):
   XX=           -106.1079   YY=            -79.2874   ZZ=            -81.4453
   XY=             -1.7624   XZ=             -0.1978   YZ=              1.9987

 Normal termination of Gaussian 16 at Fri Jun 30 00:56:39 2023.
