 Gaussian 16, Revision C.02,
 Gaussian 16:  ES64L-G16RevC.02  7-Dec-2021

 ---------------------------------------------------------
 #MP2/6-31G* SCF=Tight Opt=(ModRedun, MaxCycle=20 ) NoSymm
 ---------------------------------------------------------

 --------
 MolName:
 --------
 Symbolic Z-matrix:
 Charge =  0 Multiplicity = 1

 SCF Done:  E(RHF) =  -661.280174054     A.U. after   17 cycles
 E2 =    -0.2037561191D+01 EUMP2 =    -0.66331773524493D+03
 SCF Done:  E(RHF) =  -661.296024042     A.U. after   15 cycles
 E2 =    -0.2033811046D+01 EUMP2 =    -0.66332983508770D+03
 SCF Done:  E(RHF) =  -661.287360603     A.U. after   17 cycles
 E2 =    -0.2035962100D+01 EUMP2 =    -0.66332332270256D+03
 SCF Done:  E(RHF) =  -661.294380720     A.U. after   16 cycles
 E2 =    -0.2036707523D+01 EUMP2 =    -0.66333108824272D+03
 SCF Done:  E(RHF) =  -661.296824109     A.U. after   14 cycles
 E2 =    -0.2036271400D+01 EUMP2 =    -0.66333309550872D+03
 SCF Done:  E(RHF) =  -661.297811211     A.U. after   12 cycles
 E2 =    -0.2035519187D+01 EUMP2 =    -0.66333333039847D+03
 SCF Done:  E(RHF) =  -661.298168770     A.U. after   12 cycles
 E2 =    -0.2035258409D+01 EUMP2 =    -0.66333342717828D+03
 SCF Done:  E(RHF) =  -661.298056422     A.U. after   11 cycles
 E2 =    -0.2035384211D+01 EUMP2 =    -0.66333344063358D+03
 SCF Done:  E(RHF) =  -661.297854187     A.U. after   11 cycles
 E2 =    -0.2035591272D+01 EUMP2 =    -0.66333344545935D+03
 SCF Done:  E(RHF) =  -661.297848720     A.U. after   10 cycles
 E2 =    -0.2035597068D+01 EUMP2 =    -0.66333344578795D+03
 Optimization completed.
    -- Stationary point found.

                          Input orientation:
 ---------------------------------------------------------------------
 Center     Atomic      Atomic             Coordinates (Angstroms)
 Number     Number       Type             X           Y           Z
 ---------------------------------------------------------------------
      1          8           0       -3.840833    0.704228   -0.500194
      2          7           0       -3.108713   -0.238237   -0.138804
      3          8           0       -3.519124   -1.395121    0.083701
      4          6           0       -1.682189   -0.021404    0.009658
      5          6           0       -1.300645    1.286761    0.150247
      6          7           0       -0.056770    1.783323    0.241641
      7          6           0        1.203257    1.053294    0.282197
      8          1           0        1.854246    1.646122    0.942129
      9          6           0        1.901802    0.933167   -1.071179
     10          6           0        3.301011    0.344908   -0.855671
     11          6           0        3.256197   -0.984283   -0.097381
     12          6           0        2.466992   -0.868253    1.208349
     13          6           0        1.055367   -0.342014    0.924508
     14          1           0        0.481846   -0.231302    1.858323
     15          7           0        0.406615   -1.326727    0.063803
     16          6           0       -0.841991   -1.174612   -0.238711
     17          1           0       -2.094944    2.027895    0.186512
     18          1           0        0.003165    2.784361    0.385007
     19          1           0        1.304373    0.289405   -1.725682
     20          1           0        1.965649    1.919749   -1.546733
     21          1           0        3.800750    0.213319   -1.822231
     22          1           0        3.903373    1.069302   -0.289134
     23          1           0        2.775687   -1.744959   -0.720594
     24          1           0        4.276237   -1.329172    0.109562
     25          1           0        2.384478   -1.847942    1.690368
     26          1           0        2.979216   -0.197784    1.912205
     27          1           0       -1.314061   -1.992993   -0.784906
 ---------------------------------------------------------------------

 Alpha  occ. eigenvalues --  -20.59450 -20.59200 -15.84628 -15.63990 -15.56090
 Alpha  occ. eigenvalues --  -11.35001 -11.29748 -11.29576 -11.28552 -11.27118
 Alpha  occ. eigenvalues --  -11.23678 -11.23170 -11.22664 -11.22061  -1.57134
 Alpha  occ. eigenvalues --   -1.36804  -1.30871  -1.23098  -1.14730  -1.09860
 Alpha  occ. eigenvalues --   -1.02769  -1.01266  -0.94536  -0.89673  -0.85514
 Alpha  occ. eigenvalues --   -0.82517  -0.78555  -0.77511  -0.75203  -0.72010
 Alpha  occ. eigenvalues --   -0.70149  -0.69032  -0.67505  -0.65015  -0.63695
 Alpha  occ. eigenvalues --   -0.62422  -0.60267  -0.57672  -0.56963  -0.55101
 Alpha  occ. eigenvalues --   -0.54591  -0.50700  -0.50309  -0.48719  -0.48080
 Alpha  occ. eigenvalues --   -0.47544  -0.46154  -0.46035  -0.43595  -0.41691
 Alpha  occ. eigenvalues --   -0.39907  -0.33697
 Alpha virt. eigenvalues --    0.07605   0.11649   0.17309   0.21765   0.24011
 Alpha virt. eigenvalues --    0.25517   0.27022   0.28547   0.29053   0.29504
 Alpha virt. eigenvalues --    0.30254   0.31681   0.32014   0.32763   0.33903

 Mulliken charges:
               1
     1  O   -0.491995
     2  N    0.468144
     3  O   -0.457646
     4  C    0.019152
     5  C    0.191664
     6  N   -0.781810
     7  C    0.058736
     8  H    0.179831
     9  C   -0.300957
    10  C   -0.327772
    11  C   -0.321449
    12  C   -0.306847
    13  C   -0.037138
    14  H    0.190577
    15  N   -0.512021
    16  C    0.120462
    17  H    0.287281
    18  H    0.404395
    19  H    0.189826
    20  H    0.161670
    21  H    0.174481
    22  H    0.149248
    23  H    0.199795
    24  H    0.164422
    25  H    0.187182
    26  H    0.150250
    27  H    0.240519
 Sum of Mulliken charges =  -0.00000

 Dipole moment (field-independent basis, Debye):
    X=              5.2664    Y=              4.8903    Z=              1.0298  Tot=              7.2602
 Quadrupole moment (field-independent basis, Debye-Ang):
   XX=           -105.2007   YY=            -78.7398   ZZ=            -82.2890
   XY=             -1.9557   XZ=             -1.1134   YZ=              3.3526

 Normal termination of Gaussian 16 at Fri Jun 30 14:56:02 2023.
