 Gaussian 16, Revision C.02,
 Gaussian 16:  ES64L-G16RevC.02  7-Dec-2021

 ---------------------------------------------------------
 #MP2/6-31G* SCF=Tight Opt=(ModRedun, MaxCycle=20 ) NoSymm
 ---------------------------------------------------------

 --------
 MolName:
 --------
 Symbolic Z-matrix:
 Charge =  0 Multiplicity = 1

 SCF Done:  E(RHF) =  -661.280683181     A.U. after   17 cycles
 E2 =    -0.2037399098D+01 EUMP2 =    -0.66331808227928D+03
 SCF Done:  E(RHF) =  -661.297348083     A.U. after   15 cycles
 E2 =    -0.2033095793D+01 EUMP2 =    -0.66333044387535D+03
 SCF Done:  E(RHF) =  -661.289134547     A.U. after   17 cycles
 E2 =    -0.2035135348D+01 EUMP2 =    -0.66332426989480D+03
 SCF Done:  E(RHF) =  -661.295908442     A.U. after   15 cycles
 E2 =    -0.2035760336D+01 EUMP2 =    -0.66333166877852D+03
 SCF Done:  E(RHF) =  -661.298453312     A.U. after   14 cycles
 E2 =    -0.2035497916D+01 EUMP2 =    -0.66333395122802D+03
 SCF Done:  E(RHF) =  -661.299459877     A.U. after   13 cycles
 E2 =    -0.2034788317D+01 EUMP2 =    -0.66333424819397D+03
 SCF Done:  E(RHF) =  -661.299774913     A.U. after   12 cycles
 E2 =    -0.2034566350D+01 EUMP2 =    -0.66333434126301D+03
 SCF Done:  E(RHF) =  -661.299680992     A.U. after   11 cycles
 E2 =    -0.2034676406D+01 EUMP2 =    -0.66333435739834D+03
 SCF Done:  E(RHF) =  -661.299577227     A.U. after   11 cycles
 E2 =    -0.2034784189D+01 EUMP2 =    -0.66333436141647D+03
 SCF Done:  E(RHF) =  -661.299569509     A.U. after    9 cycles
 E2 =    -0.2034792130D+01 EUMP2 =    -0.66333436163983D+03
 Optimization completed.
    -- Stationary point found.

                          Input orientation:
 ---------------------------------------------------------------------
 Center     Atomic      Atomic             Coordinates (Angstroms)
 Number     Number       Type             X           Y           Z
 ---------------------------------------------------------------------
      1          8           0       -3.505171   -1.412213   -0.185265
      2          7           0       -3.114890   -0.228570   -0.140417
      3          8           0       -3.879737    0.754956   -0.179219
      4          6           0       -1.684439   -0.020856   -0.005233
      5          6           0       -1.300712    1.263733    0.278648
      6          7           0       -0.056239    1.749415    0.406355
      7          6           0        1.204965    1.020757    0.371347
      8          1           0        1.855103    1.543175    1.089190
      9          6           0        1.904571    1.041615   -0.986503
     10          6           0        3.303484    0.433877   -0.831443
     11          6           0        3.257633   -0.966757   -0.215000
     12          6           0        2.466893   -0.986753    1.094868
     13          6           0        1.056025   -0.432536    0.866347
     14          1           0        0.482106   -0.418558    1.806426
     15          7           0        0.407199   -1.320454   -0.093586
     16          6           0       -0.840963   -1.137557   -0.381561
     17          1           0       -2.095276    1.993409    0.409880
     18          1           0        0.003650    2.730711    0.651079
     19          1           0        1.307975    0.469334   -1.704945
     20          1           0        1.969170    2.072230   -1.356995
     21          1           0        3.804324    0.403012   -1.805851
     22          1           0        3.905259    1.095549   -0.192226
     23          1           0        2.777767   -1.658552   -0.914312
     24          1           0        4.277395   -1.331447   -0.043779
     25          1           0        2.383194   -2.011284    1.472066
     26          1           0        2.978857   -0.393762    1.865322
     27          1           0       -1.308142   -1.890496   -1.017184
 ---------------------------------------------------------------------

 Alpha  occ. eigenvalues --  -20.59323 -20.59012 -15.84670 -15.64089 -15.56094
 Alpha  occ. eigenvalues --  -11.35016 -11.29645 -11.29609 -11.28590 -11.27127
 Alpha  occ. eigenvalues --  -11.23711 -11.23195 -11.22680 -11.22078  -1.57112
 Alpha  occ. eigenvalues --   -1.36742  -1.30940  -1.23084  -1.14718  -1.09841
 Alpha  occ. eigenvalues --   -1.02794  -1.01292  -0.94522  -0.89669  -0.85544
 Alpha  occ. eigenvalues --   -0.82479  -0.78591  -0.77448  -0.75215  -0.72009
 Alpha  occ. eigenvalues --   -0.69987  -0.69201  -0.67675  -0.64960  -0.63742
 Alpha  occ. eigenvalues --   -0.62400  -0.60269  -0.57687  -0.56990  -0.55096
 Alpha  occ. eigenvalues --   -0.54589  -0.50715  -0.50209  -0.48689  -0.48082
 Alpha  occ. eigenvalues --   -0.47452  -0.46117  -0.46071  -0.43632  -0.41691
 Alpha  occ. eigenvalues --   -0.39874  -0.33788
 Alpha virt. eigenvalues --    0.07481   0.11790   0.17298   0.21802   0.24056
 Alpha virt. eigenvalues --    0.25623   0.27137   0.28689   0.29038   0.29603
 Alpha virt. eigenvalues --    0.30480   0.31728   0.32020   0.32758   0.33919

 Mulliken charges:
               1
     1  O   -0.461777
     2  N    0.480316
     3  O   -0.500273
     4  C    0.009584
     5  C    0.190172
     6  N   -0.780661
     7  C    0.059352
     8  H    0.180009
     9  C   -0.301133
    10  C   -0.327864
    11  C   -0.321468
    12  C   -0.306798
    13  C   -0.036953
    14  H    0.190255
    15  N   -0.512057
    16  C    0.120789
    17  H    0.292633
    18  H    0.404751
    19  H    0.189920
    20  H    0.161583
    21  H    0.174564
    22  H    0.149319
    23  H    0.199876
    24  H    0.164502
    25  H    0.187203
    26  H    0.150277
    27  H    0.243879
 Sum of Mulliken charges =  -0.00000

 Dipole moment (field-independent basis, Debye):
    X=              5.3641    Y=              4.7859    Z=              1.3667  Tot=              7.3175
 Quadrupole moment (field-independent basis, Debye-Ang):
   XX=           -105.7960   YY=            -79.5119   ZZ=            -81.3086
   XY=             -1.7717   XZ=             -0.5219   YZ=              2.8419

 Normal termination of Gaussian 16 at Fri Jun 30 01:24:54 2023.
