 Gaussian 16, Revision C.02,
 Gaussian 16:  ES64L-G16RevC.02  7-Dec-2021

 ---------------------------------------------------------
 #MP2/6-31G* SCF=Tight Opt=(ModRedun, MaxCycle=20 ) NoSymm
 ---------------------------------------------------------

 --------
 MolName:
 --------
 Symbolic Z-matrix:
 Charge =  0 Multiplicity = 1

 SCF Done:  E(RHF) =  -661.280044214     A.U. after   17 cycles
 E2 =    -0.2037597131D+01 EUMP2 =    -0.66331764134424D+03
 SCF Done:  E(RHF) =  -661.295800074     A.U. after   15 cycles
 E2 =    -0.2033743976D+01 EUMP2 =    -0.66332954405062D+03
 SCF Done:  E(RHF) =  -661.284733217     A.U. after   18 cycles
 E2 =    -0.2036297780D+01 EUMP2 =    -0.66332103099738D+03
 SCF Done:  E(RHF) =  -661.295200783     A.U. after   15 cycles
 E2 =    -0.2036475227D+01 EUMP2 =    -0.66333167601019D+03
 SCF Done:  E(RHF) =  -661.296878451     A.U. after   13 cycles
 E2 =    -0.2036206658D+01 EUMP2 =    -0.66333308510846D+03
 SCF Done:  E(RHF) =  -661.297916545     A.U. after   13 cycles
 E2 =    -0.2035441327D+01 EUMP2 =    -0.66333335787144D+03
 SCF Done:  E(RHF) =  -661.298196492     A.U. after   12 cycles
 E2 =    -0.2035263143D+01 EUMP2 =    -0.66333345963532D+03
 SCF Done:  E(RHF) =  -661.298062992     A.U. after   11 cycles
 E2 =    -0.2035410911D+01 EUMP2 =    -0.66333347390282D+03
 SCF Done:  E(RHF) =  -661.297917014     A.U. after   11 cycles
 E2 =    -0.2035560050D+01 EUMP2 =    -0.66333347706397D+03
 SCF Done:  E(RHF) =  -661.297910930     A.U. after   10 cycles
 E2 =    -0.2035566524D+01 EUMP2 =    -0.66333347745384D+03
 Optimization completed.
    -- Stationary point found.

                          Input orientation:
 ---------------------------------------------------------------------
 Center     Atomic      Atomic             Coordinates (Angstroms)
 Number     Number       Type             X           Y           Z
 ---------------------------------------------------------------------
      1          8           0       -3.518863   -1.397084   -0.039939
      2          7           0       -3.108723   -0.225166   -0.162060
      3          8           0       -3.850013    0.754232   -0.375880
      4          6           0       -1.682199   -0.022488    0.006187
      5          6           0       -1.300512    1.263659    0.283545
      6          7           0       -0.056212    1.747226    0.425482
      7          6           0        1.204131    1.017794    0.382093
      8          1           0        1.857090    1.535472    1.100685
      9          6           0        1.898277    1.046718   -0.978551
     10          6           0        3.298377    0.439384   -0.833106
     11          6           0        3.256492   -0.964726   -0.224435
     12          6           0        2.471522   -0.992590    1.088685
     13          6           0        1.058809   -0.439435    0.868615
     14          1           0        0.488331   -0.431931    1.810781
     15          7           0        0.407534   -1.324315   -0.092750
     16          6           0       -0.842056   -1.139933   -0.372234
     17          1           0       -2.094562    1.996306    0.401989
     18          1           0        0.003989    2.726188    0.678951
     19          1           0        1.298951    0.477920   -1.697568
     20          1           0        1.960263    2.079404   -1.343630
     21          1           0        3.795014    0.414545   -1.809852
     22          1           0        3.902336    1.097958   -0.192744
     23          1           0        2.774201   -1.653092   -0.925477
     24          1           0        4.277319   -1.329456   -0.059702
     25          1           0        2.390907   -2.019132    1.461044
     26          1           0        2.985845   -0.402708    1.859936
     27          1           0       -1.316250   -1.893749   -1.003073
 ---------------------------------------------------------------------

 Alpha  occ. eigenvalues --  -20.59452 -20.59202 -15.84637 -15.63993 -15.56085
 Alpha  occ. eigenvalues --  -11.34996 -11.29752 -11.29576 -11.28556 -11.27113
 Alpha  occ. eigenvalues --  -11.23681 -11.23173 -11.22662 -11.22061  -1.57141
 Alpha  occ. eigenvalues --   -1.36809  -1.30869  -1.23101  -1.14729  -1.09857
 Alpha  occ. eigenvalues --   -1.02771  -1.01264  -0.94554  -0.89654  -0.85515
 Alpha  occ. eigenvalues --   -0.82511  -0.78569  -0.77503  -0.75209  -0.72005
 Alpha  occ. eigenvalues --   -0.70148  -0.69029  -0.67524  -0.65024  -0.63697
 Alpha  occ. eigenvalues --   -0.62424  -0.60259  -0.57663  -0.56969  -0.55104
 Alpha  occ. eigenvalues --   -0.54588  -0.50694  -0.50301  -0.48729  -0.48079
 Alpha  occ. eigenvalues --   -0.47546  -0.46155  -0.46042  -0.43605  -0.41684
 Alpha  occ. eigenvalues --   -0.39913  -0.33704
 Alpha virt. eigenvalues --    0.07561   0.11707   0.17314   0.21753   0.23969
 Alpha virt. eigenvalues --    0.25490   0.27081   0.28587   0.29048   0.29527
 Alpha virt. eigenvalues --    0.30262   0.31668   0.32019   0.32764   0.33902

 Mulliken charges:
               1
     1  O   -0.456279
     2  N    0.468225
     3  O   -0.493386
     4  C    0.019761
     5  C    0.191269
     6  N   -0.781455
     7  C    0.058682
     8  H    0.179864
     9  C   -0.300897
    10  C   -0.327767
    11  C   -0.321440
    12  C   -0.306869
    13  C   -0.037194
    14  H    0.190844
    15  N   -0.512282
    16  C    0.119750
    17  H    0.288201
    18  H    0.404437
    19  H    0.189668
    20  H    0.161651
    21  H    0.174445
    22  H    0.149269
    23  H    0.199750
    24  H    0.164427
    25  H    0.187213
    26  H    0.150263
    27  H    0.239851
 Sum of Mulliken charges =  -0.00000

 Dipole moment (field-independent basis, Debye):
    X=              5.2808    Y=              4.7519    Z=              1.4308  Tot=              7.2467
 Quadrupole moment (field-independent basis, Debye-Ang):
   XX=           -105.3178   YY=            -79.5064   ZZ=            -81.4698
   XY=             -1.7979   XZ=             -0.8400   YZ=              3.6233

 Normal termination of Gaussian 16 at Fri Jun 30 01:48:16 2023.
