 Gaussian 16, Revision C.02,
 Gaussian 16:  ES64L-G16RevC.02  7-Dec-2021

 ---------------------------------------------------------
 #MP2/6-31G* SCF=Tight Opt=(ModRedun, MaxCycle=20 ) NoSymm
 ---------------------------------------------------------

 --------
 MolName:
 --------
 Symbolic Z-matrix:
 Charge =  0 Multiplicity = 1

 SCF Done:  E(RHF) =  -661.278760987     A.U. after   17 cycles
 E2 =    -0.2037893895D+01 EUMP2 =    -0.66331665488127D+03
 SCF Done:  E(RHF) =  -661.293594016     A.U. after   15 cycles
 E2 =    -0.2034600624D+01 EUMP2 =    -0.66332819464013D+03
 SCF Done:  E(RHF) =  -661.283580400     A.U. after   18 cycles
 E2 =    -0.2037472778D+01 EUMP2 =    -0.66332105317813D+03
 SCF Done:  E(RHF) =  -661.293017012     A.U. after   15 cycles
 E2 =    -0.2037481380D+01 EUMP2 =    -0.66333049839249D+03
 SCF Done:  E(RHF) =  -661.294382365     A.U. after   13 cycles
 E2 =    -0.2037122696D+01 EUMP2 =    -0.66333150506071D+03
 SCF Done:  E(RHF) =  -661.295347203     A.U. after   12 cycles
 E2 =    -0.2036386524D+01 EUMP2 =    -0.66333173372693D+03
 SCF Done:  E(RHF) =  -661.295577710     A.U. after   12 cycles
 E2 =    -0.2036241593D+01 EUMP2 =    -0.66333181930319D+03
 SCF Done:  E(RHF) =  -661.295485634     A.U. after   11 cycles
 E2 =    -0.2036344805D+01 EUMP2 =    -0.66333183043884D+03
 SCF Done:  E(RHF) =  -661.295289056     A.U. after   11 cycles
 E2 =    -0.2036545799D+01 EUMP2 =    -0.66333183485483D+03
 SCF Done:  E(RHF) =  -661.295282279     A.U. after    9 cycles
 E2 =    -0.2036552824D+01 EUMP2 =    -0.66333183510235D+03
 Optimization completed.
    -- Stationary point found.

                          Input orientation:
 ---------------------------------------------------------------------
 Center     Atomic      Atomic             Coordinates (Angstroms)
 Number     Number       Type             X           Y           Z
 ---------------------------------------------------------------------
      1          8           0       -3.548402   -1.353935    0.096279
      2          7           0       -3.103333   -0.222052   -0.182855
      3          8           0       -3.807290    0.734035   -0.564262
      4          6           0       -1.680410   -0.026968    0.020898
      5          6           0       -1.300790    1.261227    0.289475
      6          7           0       -0.056826    1.743862    0.444234
      7          6           0        1.203090    1.014752    0.392407
      8          1           0        1.858844    1.528386    1.111270
      9          6           0        1.891546    1.051399   -0.971081
     10          6           0        3.293041    0.445110   -0.835224
     11          6           0        3.255728   -0.962182   -0.233723
     12          6           0        2.476826   -0.997632    1.082744
     13          6           0        1.062090   -0.446159    0.871083
     14          1           0        0.495063   -0.444972    1.815294
     15          7           0        0.408610   -1.328539   -0.091265
     16          6           0       -0.842632   -1.143413   -0.362291
     17          1           0       -2.093919    1.996984    0.395568
     18          1           0        0.003209    2.721294    0.703130
     19          1           0        1.289611    0.485606   -1.690368
     20          1           0        1.950516    2.086010   -1.331143
     21          1           0        3.785326    0.426049   -1.814314
     22          1           0        3.899052    1.101069   -0.194116
     23          1           0        2.771134   -1.647602   -0.936073
     24          1           0        4.277763   -1.326464   -0.075528
     25          1           0        2.399794   -2.026004    1.450775
     26          1           0        2.993379   -0.410256    1.854390
     27          1           0       -1.323010   -1.898575   -0.988295
 ---------------------------------------------------------------------

 Alpha  occ. eigenvalues --  -20.59624 -20.59459 -15.84624 -15.63849 -15.56092
 Alpha  occ. eigenvalues --  -11.34949 -11.29879 -11.29524 -11.28525 -11.27092
 Alpha  occ. eigenvalues --  -11.23636 -11.23141 -11.22639 -11.22039  -1.57206
 Alpha  occ. eigenvalues --   -1.36907  -1.30763  -1.23117  -1.14733  -1.09860
 Alpha  occ. eigenvalues --   -1.02736  -1.01225  -0.94573  -0.89643  -0.85478
 Alpha  occ. eigenvalues --   -0.82541  -0.78541  -0.77573  -0.75181  -0.72005
 Alpha  occ. eigenvalues --   -0.70306  -0.68886  -0.67358  -0.65092  -0.63643
 Alpha  occ. eigenvalues --   -0.62436  -0.60248  -0.57625  -0.56941  -0.55101
 Alpha  occ. eigenvalues --   -0.54577  -0.50726  -0.50364  -0.48765  -0.48092
 Alpha  occ. eigenvalues --   -0.47644  -0.46194  -0.46010  -0.43595  -0.41666
 Alpha  occ. eigenvalues --   -0.39964  -0.33588
 Alpha virt. eigenvalues --    0.07696   0.11539   0.17350   0.21690   0.23847
 Alpha virt. eigenvalues --    0.25322   0.26961   0.28430   0.29070   0.29465
 Alpha virt. eigenvalues --    0.30008   0.31623   0.32029   0.32778   0.33900

 Mulliken charges:
               1
     1  O   -0.450916
     2  N    0.456844
     3  O   -0.484687
     4  C    0.029187
     5  C    0.192151
     6  N   -0.782686
     7  C    0.058251
     8  H    0.179618
     9  C   -0.300671
    10  C   -0.327668
    11  C   -0.321397
    12  C   -0.306891
    13  C   -0.037743
    14  H    0.191587
    15  N   -0.511816
    16  C    0.118644
    17  H    0.282440
    18  H    0.403925
    19  H    0.189422
    20  H    0.161628
    21  H    0.174285
    22  H    0.149204
    23  H    0.199554
    24  H    0.164317
    25  H    0.187097
    26  H    0.150302
    27  H    0.236019
 Sum of Mulliken charges =  -0.00000

 Dipole moment (field-independent basis, Debye):
    X=              5.1710    Y=              4.6921    Z=              1.4800  Tot=              7.1376
 Quadrupole moment (field-independent basis, Debye-Ang):
   XX=           -104.7448   YY=            -79.3003   ZZ=            -81.8739
   XY=             -1.8386   XZ=             -1.0762   YZ=              4.3018

 Normal termination of Gaussian 16 at Fri Jun 30 02:16:55 2023.
