 Gaussian 16, Revision C.02,
 Gaussian 16:  ES64L-G16RevC.02  7-Dec-2021

 ---------------------------------------------------------
 #MP2/6-31G* SCF=Tight Opt=(ModRedun, MaxCycle=20 ) NoSymm
 ---------------------------------------------------------

 --------
 MolName:
 --------
 Symbolic Z-matrix:
 Charge =  0 Multiplicity = 1

 SCF Done:  E(RHF) =  -661.276672362     A.U. after   17 cycles
 E2 =    -0.2038302899D+01 EUMP2 =    -0.66331497526081D+03
 SCF Done:  E(RHF) =  -661.290576653     A.U. after   15 cycles
 E2 =    -0.2035663854D+01 EUMP2 =    -0.66332624050702D+03
 SCF Done:  E(RHF) =  -661.289444604     A.U. after   15 cycles
 E2 =    -0.2037471329D+01 EUMP2 =    -0.66332691593323D+03
 SCF Done:  E(RHF) =  -661.286726498     A.U. after   17 cycles
 E2 =    -0.2039643208D+01 EUMP2 =    -0.66332636970605D+03
 SCF Done:  E(RHF) =  -661.291058329     A.U. after   14 cycles
 E2 =    -0.2038108326D+01 EUMP2 =    -0.66332916665472D+03
 SCF Done:  E(RHF) =  -661.291653261     A.U. after   13 cycles
 E2 =    -0.2037715541D+01 EUMP2 =    -0.66332936880160D+03
 SCF Done:  E(RHF) =  -661.292061607     A.U. after   12 cycles
 E2 =    -0.2037380737D+01 EUMP2 =    -0.66332944234389D+03
 SCF Done:  E(RHF) =  -661.291921064     A.U. after   11 cycles
 E2 =    -0.2037536016D+01 EUMP2 =    -0.66332945708026D+03
 SCF Done:  E(RHF) =  -661.291802338     A.U. after   11 cycles
 E2 =    -0.2037657664D+01 EUMP2 =    -0.66332946000278D+03
 SCF Done:  E(RHF) =  -661.291778267     A.U. after    9 cycles
 E2 =    -0.2037681921D+01 EUMP2 =    -0.66332946018723D+03
 Optimization completed.
    -- Stationary point found.

                          Input orientation:
 ---------------------------------------------------------------------
 Center     Atomic      Atomic             Coordinates (Angstroms)
 Number     Number       Type             X           Y           Z
 ---------------------------------------------------------------------
      1          8           0       -3.591206   -1.284200    0.230592
      2          7           0       -3.100013   -0.219819   -0.197269
      3          8           0       -3.756764    0.692094   -0.738367
      4          6           0       -1.678898   -0.033240    0.034910
      5          6           0       -1.301292    1.256607    0.295720
      6          7           0       -0.057672    1.739728    0.460152
      7          6           0        1.202150    1.011803    0.400993
      8          1           0        1.860056    1.521872    1.120414
      9          6           0        1.886215    1.055739   -0.964613
     10          6           0        3.288971    0.450668   -0.836820
     11          6           0        3.255739   -0.959587   -0.242127
     12          6           0        2.481687   -1.002330    1.076894
     13          6           0        1.065226   -0.452497    0.872245
     14          1           0        0.500769   -0.457277    1.817949
     15          7           0        0.410426   -1.332175   -0.091764
     16          6           0       -0.842312   -1.146696   -0.355979
     17          1           0       -2.093376    1.994992    0.392979
     18          1           0        0.001637    2.716109    0.722525
     19          1           0        1.282405    0.492748   -1.684593
     20          1           0        1.942477    2.092156   -1.319862
     21          1           0        3.777862    0.437110   -1.817713
     22          1           0        3.896392    1.104222   -0.194579
     23          1           0        2.769555   -1.642279   -0.946042
     24          1           0        4.278826   -1.323284   -0.089374
     25          1           0        2.407923   -2.032430    1.440752
     26          1           0        2.999765   -0.417290    1.849256
     27          1           0       -1.326538   -1.902734   -0.979259
 ---------------------------------------------------------------------

 Alpha  occ. eigenvalues --  -20.59837 -20.59758 -15.84637 -15.63654 -15.56118
 Alpha  occ. eigenvalues --  -11.34870 -11.30012 -11.29453 -11.28496 -11.27064
 Alpha  occ. eigenvalues --  -11.23573 -11.23100 -11.22612 -11.22012  -1.57304
 Alpha  occ. eigenvalues --   -1.37031  -1.30624  -1.23130  -1.14723  -1.09847
 Alpha  occ. eigenvalues --   -1.02688  -1.01175  -0.94574  -0.89641  -0.85432
 Alpha  occ. eigenvalues --   -0.82563  -0.78505  -0.77656  -0.75125  -0.72010
 Alpha  occ. eigenvalues --   -0.70476  -0.68774  -0.67186  -0.65160  -0.63579
 Alpha  occ. eigenvalues --   -0.62426  -0.60235  -0.57574  -0.56906  -0.55083
 Alpha  occ. eigenvalues --   -0.54555  -0.50831  -0.50374  -0.48802  -0.48118
 Alpha  occ. eigenvalues --   -0.47732  -0.46219  -0.45977  -0.43605  -0.41634
 Alpha  occ. eigenvalues --   -0.40020  -0.33451
 Alpha virt. eigenvalues --    0.07899   0.11264   0.17404   0.21608   0.23700
 Alpha virt. eigenvalues --    0.25160   0.26774   0.28283   0.29102   0.29434
 Alpha virt. eigenvalues --    0.29742   0.31601   0.32048   0.32799   0.33914

 Mulliken charges:
               1
     1  O   -0.446063
     2  N    0.447517
     3  O   -0.474984
     4  C    0.036592
     5  C    0.192363
     6  N   -0.784336
     7  C    0.058175
     8  H    0.179236
     9  C   -0.300456
    10  C   -0.327574
    11  C   -0.321324
    12  C   -0.306861
    13  C   -0.038512
    14  H    0.192373
    15  N   -0.510835
    16  C    0.118599
    17  H    0.275876
    18  H    0.403207
    19  H    0.189203
    20  H    0.161519
    21  H    0.174081
    22  H    0.149110
    23  H    0.199287
    24  H    0.164166
    25  H    0.186848
    26  H    0.150393
    27  H    0.232400
 Sum of Mulliken charges =  -0.00000

 Dipole moment (field-independent basis, Debye):
    X=              5.0397    Y=              4.6054    Z=              1.5077  Tot=              6.9915
 Quadrupole moment (field-independent basis, Debye-Ang):
   XX=           -104.1380   YY=            -78.9149   ZZ=            -82.4670
   XY=             -1.8724   XZ=             -1.1669   YZ=              4.8481

 Normal termination of Gaussian 16 at Fri Jun 30 02:39:22 2023.
