 Gaussian 16, Revision C.02,
 Gaussian 16:  ES64L-G16RevC.02  7-Dec-2021

 ---------------------------------------------------------
 #MP2/6-31G* SCF=Tight Opt=(ModRedun, MaxCycle=20 ) NoSymm
 ---------------------------------------------------------

 --------
 MolName:
 --------
 Symbolic Z-matrix:
 Charge =  0 Multiplicity = 1

 SCF Done:  E(RHF) =  -661.273821087     A.U. after   17 cycles
 E2 =    -0.2038830861D+01 EUMP2 =    -0.66331265194784D+03
 SCF Done:  E(RHF) =  -661.286472809     A.U. after   15 cycles
 E2 =    -0.2036930926D+01 EUMP2 =    -0.66332340373489D+03
 SCF Done:  E(RHF) =  -661.282199379     A.U. after   17 cycles
 E2 =    -0.2038178448D+01 EUMP2 =    -0.66332037782719D+03
 SCF Done:  E(RHF) =  -661.285813973     A.U. after   15 cycles
 E2 =    -0.2039923859D+01 EUMP2 =    -0.66332573783181D+03
 SCF Done:  E(RHF) =  -661.286949936     A.U. after   13 cycles
 E2 =    -0.2039375255D+01 EUMP2 =    -0.66332632519146D+03
 SCF Done:  E(RHF) =  -661.287869663     A.U. after   13 cycles
 E2 =    -0.2038648021D+01 EUMP2 =    -0.66332651768490D+03
 SCF Done:  E(RHF) =  -661.287936906     A.U. after   12 cycles
 E2 =    -0.2038626199D+01 EUMP2 =    -0.66332656310499D+03
 SCF Done:  E(RHF) =  -661.287880242     A.U. after   12 cycles
 E2 =    -0.2038697938D+01 EUMP2 =    -0.66332657818078D+03
 SCF Done:  E(RHF) =  -661.287701134     A.U. after   12 cycles
 E2 =    -0.2038882006D+01 EUMP2 =    -0.66332658314001D+03
 Optimization completed.
    -- Stationary point found.

                          Input orientation:
 ---------------------------------------------------------------------
 Center     Atomic      Atomic             Coordinates (Angstroms)
 Number     Number       Type             X           Y           Z
 ---------------------------------------------------------------------
      1          8           0       -3.641753   -1.187677    0.366167
      2          7           0       -3.100157   -0.218541   -0.203150
      3          8           0       -3.705990    0.622758   -0.896743
      4          6           0       -1.677890   -0.039746    0.044925
      5          6           0       -1.302464    1.250492    0.303036
      6          7           0       -0.058722    1.735708    0.472117
      7          6           0        1.201133    1.009113    0.407153
      8          1           0        1.860242    1.515834    1.127847
      9          6           0        1.882966    1.060192   -0.959398
     10          6           0        3.286742    0.456302   -0.837250
     11          6           0        3.256592   -0.956824   -0.249229
     12          6           0        2.485237   -1.006732    1.071047
     13          6           0        1.067404   -0.458365    0.871184
     14          1           0        0.504053   -0.468548    1.817527
     15          7           0        0.412226   -1.334751   -0.095346
     16          6           0       -0.841754   -1.149109   -0.355012
     17          1           0       -2.093782    1.990443    0.397849
     18          1           0       -0.000367    2.710785    0.738965
     19          1           0        1.278526    0.500085   -1.681146
     20          1           0        1.937217    2.098406   -1.309682
     21          1           0        3.773842    0.448045   -1.819112
     22          1           0        3.894588    1.107470   -0.192975
     23          1           0        2.769986   -1.636875   -0.955406
     24          1           0        4.280491   -1.319845   -0.100199
     25          1           0        2.414090   -2.038513    1.430671
     26          1           0        3.003747   -0.424075    1.844908
     27          1           0       -1.326194   -1.903041   -0.981728
 ---------------------------------------------------------------------

 Alpha  occ. eigenvalues --  -20.60091 -20.60079 -15.84681 -15.63412 -15.56163
 Alpha  occ. eigenvalues --  -11.34763 -11.30137 -11.29365 -11.28479 -11.27030
 Alpha  occ. eigenvalues --  -11.23492 -11.23050 -11.22582 -11.21980  -1.57440
 Alpha  occ. eigenvalues --   -1.37182  -1.30444  -1.23134  -1.14698  -1.09816
 Alpha  occ. eigenvalues --   -1.02626  -1.01111  -0.94556  -0.89658  -0.85372
 Alpha  occ. eigenvalues --   -0.82574  -0.78455  -0.77747  -0.75040  -0.72015
 Alpha  occ. eigenvalues --   -0.70668  -0.68688  -0.67027  -0.65219  -0.63507
 Alpha  occ. eigenvalues --   -0.62386  -0.60219  -0.57509  -0.56867  -0.55049
 Alpha  occ. eigenvalues --   -0.54519  -0.50986  -0.50350  -0.48848  -0.48150
 Alpha  occ. eigenvalues --   -0.47805  -0.46223  -0.45944  -0.43635  -0.41583
 Alpha  occ. eigenvalues --   -0.40073  -0.33307
 Alpha virt. eigenvalues --    0.08176   0.10876   0.17465   0.21509   0.23559
 Alpha virt. eigenvalues --    0.25021   0.26550   0.28189   0.29140   0.29392
 Alpha virt. eigenvalues --    0.29529   0.31606   0.32073   0.32828   0.33944

 Mulliken charges:
               1
     1  O   -0.441620
     2  N    0.440694
     3  O   -0.464992
     4  C    0.042072
     5  C    0.191668
     6  N   -0.786517
     7  C    0.058599
     8  H    0.178671
     9  C   -0.300220
    10  C   -0.327508
    11  C   -0.321224
    12  C   -0.306809
    13  C   -0.039404
    14  H    0.193052
    15  N   -0.509725
    16  C    0.119762
    17  H    0.268958
    18  H    0.402284
    19  H    0.189016
    20  H    0.161363
    21  H    0.173830
    22  H    0.148982
    23  H    0.198939
    24  H    0.163980
    25  H    0.186468
    26  H    0.150529
    27  H    0.229151
 Sum of Mulliken charges =  -0.00000

 Dipole moment (field-independent basis, Debye):
    X=              4.8900    Y=              4.4957    Z=              1.5208  Tot=              6.8144
 Quadrupole moment (field-independent basis, Debye-Ang):
   XX=           -103.5358   YY=            -78.3777   ZZ=            -83.2004
   XY=             -1.8825   XZ=             -1.1173   YZ=              5.2382

 Normal termination of Gaussian 16 at Fri Jun 30 03:00:03 2023.
