 Gaussian 16, Revision C.02,
 Gaussian 16:  ES64L-G16RevC.02  7-Dec-2021

 ---------------------------------------------------------
 #MP2/6-31G* SCF=Tight Opt=(ModRedun, MaxCycle=20 ) NoSymm
 ---------------------------------------------------------

 --------
 MolName:
 --------
 Symbolic Z-matrix:
 Charge =  0 Multiplicity = 1

 SCF Done:  E(RHF) =  -661.270596870     A.U. after   17 cycles
 E2 =    -0.2039433145D+01 EUMP2 =    -0.66331003001524D+03
 SCF Done:  E(RHF) =  -661.281979939     A.U. after   16 cycles
 E2 =    -0.2038224903D+01 EUMP2 =    -0.66332020484220D+03
 SCF Done:  E(RHF) =  -661.276961596     A.U. after   18 cycles
 E2 =    -0.2039335289D+01 EUMP2 =    -0.66331629688548D+03
 SCF Done:  E(RHF) =  -661.282305215     A.U. after   15 cycles
 E2 =    -0.2040567333D+01 EUMP2 =    -0.66332287254806D+03
 SCF Done:  E(RHF) =  -661.282951474     A.U. after   14 cycles
 E2 =    -0.2040426569D+01 EUMP2 =    -0.66332337804329D+03
 SCF Done:  E(RHF) =  -661.283643319     A.U. after   14 cycles
 E2 =    -0.2039906218D+01 EUMP2 =    -0.66332354953748D+03
 SCF Done:  E(RHF) =  -661.283722008     A.U. after   12 cycles
 E2 =    -0.2039878124D+01 EUMP2 =    -0.66332360013154D+03
 SCF Done:  E(RHF) =  -661.283643206     A.U. after   12 cycles
 E2 =    -0.2039977839D+01 EUMP2 =    -0.66332362104519D+03
 SCF Done:  E(RHF) =  -661.283556197     A.U. after   11 cycles
 E2 =    -0.2040067931D+01 EUMP2 =    -0.66332362412806D+03
 SCF Done:  E(RHF) =  -661.283524924     A.U. after    9 cycles
 E2 =    -0.2040099432D+01 EUMP2 =    -0.66332362435587D+03
 Optimization completed.
    -- Stationary point found.

                          Input orientation:
 ---------------------------------------------------------------------
 Center     Atomic      Atomic             Coordinates (Angstroms)
 Number     Number       Type             X           Y           Z
 ---------------------------------------------------------------------
      1          8           0       -3.688907   -1.066325    0.503478
      2          7           0       -3.102633   -0.219101   -0.199647
      3          8           0       -3.661278    0.515215   -1.038922
      4          6           0       -1.676281   -0.044023    0.047622
      5          6           0       -1.303874    1.244581    0.311765
      6          7           0       -0.059328    1.733309    0.478239
      7          6           0        1.200504    1.007858    0.410594
      8          1           0        1.859844    1.510791    1.133862
      9          6           0        1.883506    1.064824   -0.955315
     10          6           0        3.287209    0.460310   -0.835722
     11          6           0        3.256967   -0.955516   -0.254314
     12          6           0        2.485378   -1.011432    1.065549
     13          6           0        1.067532   -0.462591    0.867393
     14          1           0        0.503092   -0.477433    1.813068
     15          7           0        0.413646   -1.334701   -0.103700
     16          6           0       -0.840740   -1.148154   -0.362802
     17          1           0       -2.094782    1.984617    0.413536
     18          1           0       -0.002714    2.705750    0.753810
     19          1           0        1.279297    0.508308   -1.680060
     20          1           0        1.937821    2.104648   -1.300707
     21          1           0        3.774789    0.456646   -1.817382
     22          1           0        3.894890    1.108352   -0.188134
     23          1           0        2.770522   -1.632273   -0.963756
     24          1           0        4.280831   -1.319295   -0.106794
     25          1           0        2.414709   -2.044732    1.420915
     26          1           0        3.003288   -0.431718    1.841968
     27          1           0       -1.323319   -1.898873   -0.995532
 ---------------------------------------------------------------------

 Alpha  occ. eigenvalues --  -20.60403 -20.60381 -15.84759 -15.63133 -15.56210
 Alpha  occ. eigenvalues --  -11.34631 -11.30225 -11.29264 -11.28466 -11.26985
 Alpha  occ. eigenvalues --  -11.23392 -11.22986 -11.22543 -11.21937  -1.57603
 Alpha  occ. eigenvalues --   -1.37365  -1.30243  -1.23123  -1.14663  -1.09771
 Alpha  occ. eigenvalues --   -1.02553  -1.01037  -0.94525  -0.89695  -0.85299
 Alpha  occ. eigenvalues --   -0.82578  -0.78402  -0.77831  -0.74945  -0.72016
 Alpha  occ. eigenvalues --   -0.70883  -0.68624  -0.66910  -0.65255  -0.63424
 Alpha  occ. eigenvalues --   -0.62315  -0.60199  -0.57440  -0.56819  -0.54999
 Alpha  occ. eigenvalues --   -0.54457  -0.51158  -0.50308  -0.48903  -0.48205
 Alpha  occ. eigenvalues --   -0.47856  -0.46203  -0.45902  -0.43692  -0.41519
 Alpha  occ. eigenvalues --   -0.40098  -0.33164
 Alpha virt. eigenvalues --    0.08522   0.10402   0.17522   0.21417   0.23470
 Alpha virt. eigenvalues --    0.24901   0.26343   0.28145   0.29177   0.29242
 Alpha virt. eigenvalues --    0.29511   0.31643   0.32105   0.32864   0.33994

 Mulliken charges:
               1
     1  O   -0.437682
     2  N    0.436510
     3  O   -0.455708
     4  C    0.046828
     5  C    0.190020
     6  N   -0.788851
     7  C    0.059549
     8  H    0.177954
     9  C   -0.299948
    10  C   -0.327438
    11  C   -0.321108
    12  C   -0.306690
    13  C   -0.040474
    14  H    0.193537
    15  N   -0.508899
    16  C    0.120852
    17  H    0.262236
    18  H    0.401132
    19  H    0.188845
    20  H    0.161191
    21  H    0.173542
    22  H    0.148786
    23  H    0.198619
    24  H    0.163734
    25  H    0.185993
    26  H    0.150617
    27  H    0.226854
 Sum of Mulliken charges =  -0.00000

 Dipole moment (field-independent basis, Debye):
    X=              4.7188    Y=              4.3824    Z=              1.5348  Tot=              6.6203
 Quadrupole moment (field-independent basis, Debye-Ang):
   XX=           -102.9306   YY=            -77.7188   ZZ=            -84.0294
   XY=             -1.8975   XZ=             -0.9774   YZ=              5.4283

 Normal termination of Gaussian 16 at Fri Jun 30 03:25:12 2023.
