 Gaussian 16, Revision C.02,
 Gaussian 16:  ES64L-G16RevC.02  7-Dec-2021

 ---------------------------------------------------------
 #MP2/6-31G* SCF=Tight Opt=(ModRedun, MaxCycle=20 ) NoSymm
 ---------------------------------------------------------

 --------
 MolName:
 --------
 Symbolic Z-matrix:
 Charge =  0 Multiplicity = 1

 SCF Done:  E(RHF) =  -661.267864270     A.U. after   15 cycles
 E2 =    -0.2039991514D+01 EUMP2 =    -0.66330785578454D+03
 SCF Done:  E(RHF) =  -661.278635220     A.U. after   16 cycles
 E2 =    -0.2039216100D+01 EUMP2 =    -0.66331785131974D+03
 SCF Done:  E(RHF) =  -661.274864076     A.U. after   18 cycles
 E2 =    -0.2040330130D+01 EUMP2 =    -0.66331519420579D+03
 SCF Done:  E(RHF) =  -661.278869013     A.U. after   15 cycles
 E2 =    -0.2041503836D+01 EUMP2 =    -0.66332037284845D+03
 SCF Done:  E(RHF) =  -661.279487781     A.U. after   14 cycles
 E2 =    -0.2041394247D+01 EUMP2 =    -0.66332088202839D+03
 SCF Done:  E(RHF) =  -661.280136373     A.U. after   14 cycles
 E2 =    -0.2040961882D+01 EUMP2 =    -0.66332109825494D+03
 SCF Done:  E(RHF) =  -661.280150901     A.U. after   12 cycles
 E2 =    -0.2040992907D+01 EUMP2 =    -0.66332114380747D+03
 SCF Done:  E(RHF) =  -661.280075343     A.U. after   12 cycles
 E2 =    -0.2041102882D+01 EUMP2 =    -0.66332117822473D+03
 SCF Done:  E(RHF) =  -661.280034866     A.U. after   11 cycles
 E2 =    -0.2041147910D+01 EUMP2 =    -0.66332118277657D+03
 SCF Done:  E(RHF) =  -661.279993930     A.U. after   10 cycles
 E2 =    -0.2041189648D+01 EUMP2 =    -0.66332118357776D+03
 Optimization completed.
    -- Stationary point found.

                          Input orientation:
 ---------------------------------------------------------------------
 Center     Atomic      Atomic             Coordinates (Angstroms)
 Number     Number       Type             X           Y           Z
 ---------------------------------------------------------------------
      1          8           0       -3.721903   -0.915815    0.645551
      2          7           0       -3.107013   -0.221687   -0.188021
      3          8           0       -3.631430    0.345140   -1.167055
      4          6           0       -1.673929   -0.039603    0.035141
      5          6           0       -1.304896    1.242812    0.323860
      6          7           0       -0.057865    1.736290    0.476058
      7          6           0        1.201002    1.009200    0.409441
      8          1           0        1.859571    1.507316    1.136866
      9          6           0        1.889181    1.070447   -0.953707
     10          6           0        3.291278    0.462582   -0.832230
     11          6           0        3.256477   -0.955732   -0.257152
     12          6           0        2.480556   -1.015906    1.059950
     13          6           0        1.064316   -0.463831    0.859029
     14          1           0        0.495814   -0.481639    1.802284
     15          7           0        0.412793   -1.330612   -0.117947
     16          6           0       -0.840915   -1.141451   -0.380754
     17          1           0       -2.095507    1.979858    0.451022
     18          1           0       -0.002600    2.700969    0.777081
     19          1           0        1.286426    0.518513   -1.683179
     20          1           0        1.946450    2.111700   -1.294114
     21          1           0        3.782257    0.462212   -1.812212
     22          1           0        3.898136    1.106463   -0.179716
     23          1           0        2.771010   -1.628423   -0.971136
     24          1           0        4.279149   -1.322241   -0.107978
     25          1           0        2.407340   -2.050511    1.411036
     26          1           0        2.996713   -0.439997    1.840331
     27          1           0       -1.320399   -1.886054   -1.023449
 ---------------------------------------------------------------------

 Alpha  occ. eigenvalues --  -20.60700 -20.60679 -15.84871 -15.62826 -15.56280
 Alpha  occ. eigenvalues --  -11.34486 -11.30269 -11.29160 -11.28501 -11.26942
 Alpha  occ. eigenvalues --  -11.23277 -11.22915 -11.22506 -11.21893  -1.57792
 Alpha  occ. eigenvalues --   -1.37570  -1.30010  -1.23106  -1.14622  -1.09721
 Alpha  occ. eigenvalues --   -1.02475  -1.00954  -0.94504  -0.89750  -0.85206
 Alpha  occ. eigenvalues --   -0.82580  -0.78350  -0.77893  -0.74857  -0.71992
 Alpha  occ. eigenvalues --   -0.71106  -0.68580  -0.66872  -0.65267  -0.63345
 Alpha  occ. eigenvalues --   -0.62201  -0.60187  -0.57370  -0.56770  -0.54940
 Alpha  occ. eigenvalues --   -0.54369  -0.51317  -0.50257  -0.48979  -0.48290
 Alpha  occ. eigenvalues --   -0.47878  -0.46163  -0.45851  -0.43771  -0.41459
 Alpha  occ. eigenvalues --   -0.40089  -0.33058
 Alpha virt. eigenvalues --    0.08890   0.09916   0.17553   0.21353   0.23457
 Alpha virt. eigenvalues --    0.24779   0.26232   0.28139   0.29067   0.29263
 Alpha virt. eigenvalues --    0.29556   0.31703   0.32134   0.32903   0.34066

 Mulliken charges:
               1
     1  O   -0.435154
     2  N    0.435244
     3  O   -0.447913
     4  C    0.051292
     5  C    0.186773
     6  N   -0.791025
     7  C    0.060903
     8  H    0.177022
     9  C   -0.299496
    10  C   -0.327437
    11  C   -0.321043
    12  C   -0.306571
    13  C   -0.041707
    14  H    0.193652
    15  N   -0.507962
    16  C    0.121812
    17  H    0.256330
    18  H    0.399672
    19  H    0.188635
    20  H    0.161307
    21  H    0.173245
    22  H    0.148537
    23  H    0.198301
    24  H    0.163494
    25  H    0.185488
    26  H    0.150654
    27  H    0.225949
 Sum of Mulliken charges =  -0.00000

 Dipole moment (field-independent basis, Debye):
    X=              4.5420    Y=              4.2928    Z=              1.5828  Tot=              6.4470
 Quadrupole moment (field-independent basis, Debye-Ang):
   XX=           -102.3330   YY=            -77.0152   ZZ=            -84.8933
   XY=             -2.0151   XZ=             -0.8220   YZ=              5.3934

 Normal termination of Gaussian 16 at Fri Jun 30 03:51:07 2023.
