 Gaussian 16, Revision C.02,
 Gaussian 16:  ES64L-G16RevC.02  7-Dec-2021

 ---------------------------------------------------------
 #MP2/6-31G* SCF=Tight Opt=(ModRedun, MaxCycle=20 ) NoSymm
 ---------------------------------------------------------

 --------
 MolName:
 --------
 Symbolic Z-matrix:
 Charge =  0 Multiplicity = 1

 SCF Done:  E(RHF) =  -661.267253817     A.U. after   17 cycles
 E2 =    -0.2040302255D+01 EUMP2 =    -0.66330755607245D+03
 SCF Done:  E(RHF) =  -661.277707408     A.U. after   16 cycles
 E2 =    -0.2039561279D+01 EUMP2 =    -0.66331726868681D+03
 SCF Done:  E(RHF) =  -661.273799627     A.U. after   18 cycles
 E2 =    -0.2041009598D+01 EUMP2 =    -0.66331480922462D+03
 SCF Done:  E(RHF) =  -661.277214079     A.U. after   14 cycles
 E2 =    -0.2042064219D+01 EUMP2 =    -0.66331927829813D+03
 SCF Done:  E(RHF) =  -661.277621732     A.U. after   14 cycles
 E2 =    -0.2042088040D+01 EUMP2 =    -0.66331970977238D+03
 SCF Done:  E(RHF) =  -661.278295298     A.U. after   14 cycles
 E2 =    -0.2041716783D+01 EUMP2 =    -0.66332001208085D+03
 SCF Done:  E(RHF) =  -661.278326872     A.U. after   13 cycles
 E2 =    -0.2041741903D+01 EUMP2 =    -0.66332006877418D+03
 SCF Done:  E(RHF) =  -661.278247165     A.U. after   12 cycles
 E2 =    -0.2041856103D+01 EUMP2 =    -0.66332010326859D+03
 SCF Done:  E(RHF) =  -661.278235098     A.U. after   13 cycles
 E2 =    -0.2041877539D+01 EUMP2 =    -0.66332011263690D+03
 SCF Done:  E(RHF) =  -661.278197059     A.U. after   12 cycles
 E2 =    -0.2041918650D+01 EUMP2 =    -0.66332011570958D+03
 SCF Done:  E(RHF) =  -661.278194830     A.U. after   10 cycles
 E2 =    -0.2041921052D+01 EUMP2 =    -0.66332011588117D+03
 Optimization completed.
    -- Stationary point found.

                          Input orientation:
 ---------------------------------------------------------------------
 Center     Atomic      Atomic             Coordinates (Angstroms)
 Number     Number       Type             X           Y           Z
 ---------------------------------------------------------------------
      1          8           0       -3.723476   -0.725962    0.796652
      2          7           0       -3.110529   -0.228016   -0.167663
      3          8           0       -3.625511    0.071071   -1.262785
      4          6           0       -1.670857   -0.017884   -0.010439
      5          6           0       -1.304384    1.247679    0.339791
      6          7           0       -0.053740    1.748712    0.460376
      7          6           0        1.203036    1.015540    0.401234
      8          1           0        1.858645    1.506679    1.136120
      9          6           0        1.903453    1.078850   -0.955346
     10          6           0        3.300858    0.462202   -0.824430
     11          6           0        3.253113   -0.958534   -0.256188
     12          6           0        2.465518   -1.020475    1.053932
     13          6           0        1.054238   -0.459394    0.842518
     14          1           0        0.475987   -0.477839    1.779871
     15          7           0        0.407300   -1.319214   -0.143100
     16          6           0       -0.843355   -1.124829   -0.417995
     17          1           0       -2.094316    1.973892    0.523421
     18          1           0        0.000097    2.694367    0.816615
     19          1           0        1.304046    0.533786   -1.692745
     20          1           0        1.969140    2.121314   -1.290136
     21          1           0        3.800489    0.463356   -1.800044
     22          1           0        3.905799    1.099551   -0.163717
     23          1           0        2.769952   -1.625221   -0.977395
     24          1           0        4.272346   -1.331729   -0.100041
     25          1           0        2.383819   -2.056207    1.399816
     26          1           0        2.978024   -0.450698    1.841198
     27          1           0       -1.319671   -1.863018   -1.070529
 ---------------------------------------------------------------------

 Alpha  occ. eigenvalues --  -20.60916 -20.60887 -15.84999 -15.62545 -15.56392
 Alpha  occ. eigenvalues --  -11.34348 -11.30260 -11.29082 -11.28624 -11.26928
 Alpha  occ. eigenvalues --  -11.23172 -11.22857 -11.22486 -11.21866  -1.57962
 Alpha  occ. eigenvalues --   -1.37751  -1.29794  -1.23105  -1.14599  -1.09690
 Alpha  occ. eigenvalues --   -1.02419  -1.00888  -0.94519  -0.89822  -0.85106
 Alpha  occ. eigenvalues --   -0.82597  -0.78307  -0.77914  -0.74813  -0.71911
 Alpha  occ. eigenvalues --   -0.71276  -0.68573  -0.66954  -0.65262  -0.63292
 Alpha  occ. eigenvalues --   -0.62057  -0.60212  -0.57317  -0.56731  -0.54887
 Alpha  occ. eigenvalues --   -0.54258  -0.51404  -0.50215  -0.49095  -0.48369
 Alpha  occ. eigenvalues --   -0.47899  -0.46127  -0.45798  -0.43856  -0.41473
 Alpha  occ. eigenvalues --   -0.40016  -0.33054
 Alpha virt. eigenvalues --    0.08901   0.09813   0.17550   0.21289   0.23498
 Alpha virt. eigenvalues --    0.24698   0.26307   0.28160   0.29026   0.29325
 Alpha virt. eigenvalues --    0.29619   0.31766   0.32140   0.32926   0.34164

 Mulliken charges:
               1
     1  O   -0.436870
     2  N    0.437429
     3  O   -0.442292
     4  C    0.056031
     5  C    0.178559
     6  N   -0.790131
     7  C    0.061434
     8  H    0.176088
     9  C   -0.298813
    10  C   -0.327568
    11  C   -0.321142
    12  C   -0.306420
    13  C   -0.043276
    14  H    0.193255
    15  N   -0.505779
    16  C    0.122030
    17  H    0.252955
    18  H    0.397660
    19  H    0.188305
    20  H    0.162150
    21  H    0.173057
    22  H    0.148302
    23  H    0.198060
    24  H    0.163381
    25  H    0.185141
    26  H    0.150599
    27  H    0.227854
 Sum of Mulliken charges =  -0.00000

 Dipole moment (field-independent basis, Debye):
    X=              4.4041    Y=              4.2658    Z=              1.6812  Tot=              6.3577
 Quadrupole moment (field-independent basis, Debye-Ang):
   XX=           -101.8212   YY=            -76.4598   ZZ=            -85.6265
   XY=             -2.4107   XZ=             -0.6527   YZ=              5.0297

 Normal termination of Gaussian 16 at Fri Jun 30 04:20:44 2023.
