 Gaussian 16, Revision C.02,
 Gaussian 16:  ES64L-G16RevC.02  7-Dec-2021

 ---------------------------------------------------------
 #MP2/6-31G* SCF=Tight Opt=(ModRedun, MaxCycle=20 ) NoSymm
 ---------------------------------------------------------

 --------
 MolName:
 --------
 Symbolic Z-matrix:
 Charge =  0 Multiplicity = 1

 SCF Done:  E(RHF) =  -661.268429308     A.U. after   17 cycles
 E2 =    -0.2040448881D+01 EUMP2 =    -0.66330887818920D+03
 SCF Done:  E(RHF) =  -661.279422706     A.U. after   15 cycles
 E2 =    -0.2039179570D+01 EUMP2 =    -0.66331860227631D+03
 SCF Done:  E(RHF) =  -661.274569904     A.U. after   17 cycles
 E2 =    -0.2041675445D+01 EUMP2 =    -0.66331624534910D+03
 SCF Done:  E(RHF) =  -661.277858992     A.U. after   15 cycles
 E2 =    -0.2042317312D+01 EUMP2 =    -0.66332017630443D+03
 SCF Done:  E(RHF) =  -661.278445556     A.U. after   13 cycles
 E2 =    -0.2042150342D+01 EUMP2 =    -0.66332059589844D+03
 SCF Done:  E(RHF) =  -661.279380709     A.U. after   14 cycles
 E2 =    -0.2041581172D+01 EUMP2 =    -0.66332096188092D+03
 SCF Done:  E(RHF) =  -661.279360638     A.U. after   12 cycles
 E2 =    -0.2041654955D+01 EUMP2 =    -0.66332101559303D+03
 SCF Done:  E(RHF) =  -661.279194506     A.U. after   13 cycles
 E2 =    -0.2041843919D+01 EUMP2 =    -0.66332103842501D+03
 SCF Done:  E(RHF) =  -661.279219183     A.U. after   11 cycles
 E2 =    -0.2041821778D+01 EUMP2 =    -0.66332104096069D+03
 SCF Done:  E(RHF) =  -661.279224952     A.U. after   10 cycles
 E2 =    -0.2041816648D+01 EUMP2 =    -0.66332104159933D+03
 Optimization completed.
    -- Stationary point found.

                          Input orientation:
 ---------------------------------------------------------------------
 Center     Atomic      Atomic             Coordinates (Angstroms)
 Number     Number       Type             X           Y           Z
 ---------------------------------------------------------------------
      1          8           0       -3.715606   -0.506345    0.903323
      2          7           0       -3.109682   -0.230250   -0.150281
      3          8           0       -3.621782   -0.223396   -1.286855
      4          6           0       -1.669606    0.004804   -0.066989
      5          6           0       -1.301890    1.249668    0.349848
      6          7           0       -0.051414    1.757695    0.448629
      7          6           0        1.205194    1.021011    0.395476
      8          1           0        1.856048    1.505042    1.139264
      9          6           0        1.917841    1.089173   -0.954078
     10          6           0        3.310513    0.463744   -0.814016
     11          6           0        3.249339   -0.960252   -0.255219
     12          6           0        2.449122   -1.026251    1.047156
     13          6           0        1.043220   -0.455488    0.825692
     14          1           0        0.455303   -0.475908    1.756953
     15          7           0        0.401364   -1.307582   -0.169529
     16          6           0       -0.845369   -1.109962   -0.459099
     17          1           0       -2.092196    1.959792    0.587059
     18          1           0        0.000708    2.689496    0.840146
     19          1           0        1.322346    0.551804   -1.700263
     20          1           0        1.992112    2.133253   -1.281718
     21          1           0        3.819268    0.467993   -1.784893
     22          1           0        3.912898    1.093471   -0.143735
     23          1           0        2.769028   -1.619561   -0.985154
     24          1           0        4.264891   -1.340432   -0.092188
     25          1           0        2.358361   -2.063729    1.385408
     26          1           0        2.957366   -0.464409    1.842847
     27          1           0       -1.318396   -1.844380   -1.117784
 ---------------------------------------------------------------------

 Alpha  occ. eigenvalues --  -20.60915 -20.60801 -15.85035 -15.62541 -15.56435
 Alpha  occ. eigenvalues --  -11.34358 -11.30207 -11.29100 -11.28718 -11.26958
 Alpha  occ. eigenvalues --  -11.23178 -11.22866 -11.22497 -11.21879  -1.57969
 Alpha  occ. eigenvalues --   -1.37748  -1.29796  -1.23116  -1.14622  -1.09714
 Alpha  occ. eigenvalues --   -1.02431  -1.00905  -0.94524  -0.89862  -0.85090
 Alpha  occ. eigenvalues --   -0.82615  -0.78265  -0.77931  -0.74832  -0.71871
 Alpha  occ. eigenvalues --   -0.71235  -0.68598  -0.67112  -0.65227  -0.63311
 Alpha  occ. eigenvalues --   -0.61998  -0.60279  -0.57348  -0.56711  -0.54872
 Alpha  occ. eigenvalues --   -0.54210  -0.51340  -0.50213  -0.49183  -0.48360
 Alpha  occ. eigenvalues --   -0.47929  -0.46146  -0.45777  -0.43878  -0.41574
 Alpha  occ. eigenvalues --   -0.39910  -0.33140
 Alpha virt. eigenvalues --    0.08502   0.10267   0.17528   0.21141   0.23432
 Alpha virt. eigenvalues --    0.24686   0.26452   0.28201   0.29175   0.29362
 Alpha virt. eigenvalues --    0.29643   0.31788   0.32107   0.32909   0.34211

 Mulliken charges:
               1
     1  O   -0.442075
     2  N    0.441175
     3  O   -0.440282
     4  C    0.055125
     5  C    0.171773
     6  N   -0.785640
     7  C    0.060562
     8  H    0.176167
     9  C   -0.298788
    10  C   -0.327722
    11  C   -0.321384
    12  C   -0.306194
    13  C   -0.044230
    14  H    0.192911
    15  N   -0.503991
    16  C    0.119695
    17  H    0.253681
    18  H    0.396837
    19  H    0.188308
    20  H    0.162847
    21  H    0.173184
    22  H    0.148323
    23  H    0.198108
    24  H    0.163511
    25  H    0.185201
    26  H    0.150494
    27  H    0.232403
 Sum of Mulliken charges =  -0.00000

 Dipole moment (field-independent basis, Debye):
    X=              4.4198    Y=              4.3165    Z=              1.7204  Tot=              6.4130
 Quadrupole moment (field-independent basis, Debye-Ang):
   XX=           -101.7895   YY=            -76.1787   ZZ=            -85.9592
   XY=             -2.7874   XZ=             -0.3682   YZ=              4.2276

 Normal termination of Gaussian 16 at Fri Jun 30 04:46:52 2023.
