 Gaussian 16, Revision C.02,
 Gaussian 16:  ES64L-G16RevC.02  7-Dec-2021

 ---------------------------------------------------------
 #MP2/6-31G* SCF=Tight Opt=(ModRedun, MaxCycle=20 ) NoSymm
 ---------------------------------------------------------

 --------
 MolName:
 --------
 Symbolic Z-matrix:
 Charge =  0 Multiplicity = 1

 SCF Done:  E(RHF) =  -661.270775390     A.U. after   17 cycles
 E2 =    -0.2040095651D+01 EUMP2 =    -0.66331087104173D+03
 SCF Done:  E(RHF) =  -661.281987172     A.U. after   15 cycles
 E2 =    -0.2038647610D+01 EUMP2 =    -0.66332063478139D+03
 SCF Done:  E(RHF) =  -661.275700369     A.U. after   16 cycles
 E2 =    -0.2040959193D+01 EUMP2 =    -0.66331665956211D+03
 SCF Done:  E(RHF) =  -661.280902374     A.U. after   15 cycles
 E2 =    -0.2041459444D+01 EUMP2 =    -0.66332236181739D+03
 SCF Done:  E(RHF) =  -661.281405286     A.U. after   13 cycles
 E2 =    -0.2041429046D+01 EUMP2 =    -0.66332283433212D+03
 SCF Done:  E(RHF) =  -661.282322318     A.U. after   14 cycles
 E2 =    -0.2040877719D+01 EUMP2 =    -0.66332320003734D+03
 SCF Done:  E(RHF) =  -661.282324347     A.U. after   12 cycles
 E2 =    -0.2040919405D+01 EUMP2 =    -0.66332324375144D+03
 SCF Done:  E(RHF) =  -661.282233536     A.U. after   12 cycles
 E2 =    -0.2041023022D+01 EUMP2 =    -0.66332325655769D+03
 SCF Done:  E(RHF) =  -661.282246643     A.U. after   10 cycles
 E2 =    -0.2041011189D+01 EUMP2 =    -0.66332325783247D+03
 Optimization completed.
    -- Stationary point found.

                          Input orientation:
 ---------------------------------------------------------------------
 Center     Atomic      Atomic             Coordinates (Angstroms)
 Number     Number       Type             X           Y           Z
 ---------------------------------------------------------------------
      1          8           0       -3.732093   -0.296417    0.930142
      2          7           0       -3.108322   -0.225688   -0.146834
      3          8           0       -3.602613   -0.438130   -1.271443
      4          6           0       -1.670066    0.010702   -0.093810
      5          6           0       -1.300644    1.245198    0.355388
      6          7           0       -0.052354    1.755120    0.452368
      7          6           0        1.206026    1.020177    0.397787
      8          1           0        1.853561    1.499856    1.147152
      9          6           0        1.922900    1.096812   -0.948760
     10          6           0        3.314210    0.468522   -0.807429
     11          6           0        3.248729   -0.959098   -0.258269
     12          6           0        2.443323   -1.032680    1.040531
     13          6           0        1.039185   -0.458316    0.817253
     14          1           0        0.447802   -0.483499    1.746184
     15          7           0        0.399904   -1.303739   -0.184943
     16          6           0       -0.845103   -1.106174   -0.481356
     17          1           0       -2.092998    1.944714    0.615686
     18          1           0       -0.001353    2.686623    0.845396
     19          1           0        1.329557    0.564792   -1.700441
     20          1           0        1.999829    2.142859   -1.269471
     21          1           0        3.826382    0.478388   -1.776421
     22          1           0        3.915036    1.092957   -0.130894
     23          1           0        2.770138   -1.612823   -0.994347
     24          1           0        4.263051   -1.341915   -0.094003
     25          1           0        2.349566   -2.072274    1.371223
     26          1           0        2.949322   -0.477063    1.842003
     27          1           0       -1.315977   -1.837922   -1.143662
 ---------------------------------------------------------------------

 Alpha  occ. eigenvalues --  -20.60719 -20.60554 -15.84996 -15.62751 -15.56383
 Alpha  occ. eigenvalues --  -11.34486 -11.30128 -11.29179 -11.28727 -11.26997
 Alpha  occ. eigenvalues --  -11.23254 -11.22914 -11.22521 -11.21910  -1.57858
 Alpha  occ. eigenvalues --   -1.37624  -1.29952  -1.23113  -1.14659  -1.09756
 Alpha  occ. eigenvalues --   -1.02484  -1.00964  -0.94507  -0.89863  -0.85141
 Alpha  occ. eigenvalues --   -0.82618  -0.78242  -0.77933  -0.74879  -0.71899
 Alpha  occ. eigenvalues --   -0.71067  -0.68632  -0.67265  -0.65166  -0.63389
 Alpha  occ. eigenvalues --   -0.62023  -0.60340  -0.57422  -0.56719  -0.54889
 Alpha  occ. eigenvalues --   -0.54231  -0.51203  -0.50221  -0.49193  -0.48295
 Alpha  occ. eigenvalues --   -0.47941  -0.46198  -0.45785  -0.43851  -0.41650
 Alpha  occ. eigenvalues --   -0.39836  -0.33221
 Alpha virt. eigenvalues --    0.08281   0.10656   0.17499   0.21103   0.23338
 Alpha virt. eigenvalues --    0.24702   0.26530   0.28236   0.29275   0.29468
 Alpha virt. eigenvalues --    0.29674   0.31789   0.32065   0.32882   0.34191

 Mulliken charges:
               1
     1  O   -0.448063
     2  N    0.445809
     3  O   -0.442951
     4  C    0.048708
     5  C    0.172783
     6  N   -0.783346
     7  C    0.060356
     8  H    0.176870
     9  C   -0.299277
    10  C   -0.327835
    11  C   -0.321591
    12  C   -0.306023
    13  C   -0.044031
    14  H    0.192589
    15  N   -0.504491
    16  C    0.116852
    17  H    0.257330
    18  H    0.397706
    19  H    0.188692
    20  H    0.162888
    21  H    0.173446
    22  H    0.148485
    23  H    0.198391
    24  H    0.163710
    25  H    0.185435
    26  H    0.150409
    27  H    0.237149
 Sum of Mulliken charges =  -0.00000

 Dipole moment (field-independent basis, Debye):
    X=              4.5417    Y=              4.3817    Z=              1.7082  Tot=              6.5379
 Quadrupole moment (field-independent basis, Debye-Ang):
   XX=           -102.2272   YY=            -76.0793   ZZ=            -85.9193
   XY=             -2.8378   XZ=             -0.0978   YZ=              3.3397

 Normal termination of Gaussian 16 at Fri Jun 30 05:10:58 2023.
