 Gaussian 16, Revision C.02,
 Gaussian 16:  ES64L-G16RevC.02  7-Dec-2021

 ---------------------------------------------------------
 #MP2/6-31G* SCF=Tight Opt=(ModRedun, MaxCycle=20 ) NoSymm
 ---------------------------------------------------------

 --------
 MolName:
 --------
 Symbolic Z-matrix:
 Charge =  0 Multiplicity = 1

 SCF Done:  E(RHF) =  -661.278866814     A.U. after   17 cycles
 E2 =    -0.2037879491D+01 EUMP2 =    -0.66331674630416D+03
 SCF Done:  E(RHF) =  -661.293845122     A.U. after   15 cycles
 E2 =    -0.2034692677D+01 EUMP2 =    -0.66332853779889D+03
 SCF Done:  E(RHF) =  -661.289729411     A.U. after   15 cycles
 E2 =    -0.2036571998D+01 EUMP2 =    -0.66332630140947D+03
 SCF Done:  E(RHF) =  -661.290674655     A.U. after   16 cycles
 E2 =    -0.2038278405D+01 EUMP2 =    -0.66332895305983D+03
 SCF Done:  E(RHF) =  -661.294275560     A.U. after   15 cycles
 E2 =    -0.2037259649D+01 EUMP2 =    -0.66333153520874D+03
 SCF Done:  E(RHF) =  -661.295244353     A.U. after   12 cycles
 E2 =    -0.2036514217D+01 EUMP2 =    -0.66333175857024D+03
 SCF Done:  E(RHF) =  -661.295529095     A.U. after   12 cycles
 E2 =    -0.2036313497D+01 EUMP2 =    -0.66333184259189D+03
 SCF Done:  E(RHF) =  -661.295465566     A.U. after   11 cycles
 E2 =    -0.2036387741D+01 EUMP2 =    -0.66333185330654D+03
 SCF Done:  E(RHF) =  -661.295293384     A.U. after   11 cycles
 E2 =    -0.2036564307D+01 EUMP2 =    -0.66333185769114D+03
 SCF Done:  E(RHF) =  -661.295280466     A.U. after    9 cycles
 E2 =    -0.2036577503D+01 EUMP2 =    -0.66333185796968D+03
 Optimization completed.
    -- Stationary point found.

                          Input orientation:
 ---------------------------------------------------------------------
 Center     Atomic      Atomic             Coordinates (Angstroms)
 Number     Number       Type             X           Y           Z
 ---------------------------------------------------------------------
      1          8           0       -3.793823    0.657396   -0.687453
      2          7           0       -3.103922   -0.233647   -0.152812
      3          8           0       -3.544845   -1.346888    0.198255
      4          6           0       -1.680652   -0.022537    0.029785
      5          6           0       -1.300219    1.286406    0.161714
      6          7           0       -0.056551    1.783311    0.263162
      7          6           0        1.202784    1.052141    0.293446
      8          1           0        1.857880    1.640709    0.953059
      9          6           0        1.893524    0.938898   -1.064661
     10          6           0        3.294181    0.349970   -0.860865
     11          6           0        3.254435   -0.983064   -0.109132
     12          6           0        2.473308   -0.873676    1.201935
     13          6           0        1.059501   -0.347499    0.928750
     14          1           0        0.490944   -0.242397    1.866185
     15          7           0        0.406748   -1.329600    0.067864
     16          6           0       -0.843868   -1.175783   -0.224820
     17          1           0       -2.093462    2.029462    0.187012
     18          1           0        0.004052    2.783812    0.409137
     19          1           0        1.292164    0.298321   -1.718769
     20          1           0        1.954125    1.927853   -1.535669
     21          1           0        3.788023    0.223514   -1.831143
     22          1           0        3.899818    1.071609   -0.294305
     23          1           0        2.770312   -1.740778   -0.733164
     24          1           0        4.275826   -1.328702    0.089780
     25          1           0        2.394588   -1.855572    1.680069
     26          1           0        2.989161   -0.205858    1.905625
     27          1           0       -1.323020   -1.994402   -0.765985
 ---------------------------------------------------------------------

 Alpha  occ. eigenvalues --  -20.59606 -20.59444 -15.84607 -15.63854 -15.56092
 Alpha  occ. eigenvalues --  -11.34965 -11.29864 -11.29526 -11.28517 -11.27099
 Alpha  occ. eigenvalues --  -11.23633 -11.23139 -11.22641 -11.22037  -1.57187
 Alpha  occ. eigenvalues --   -1.36888  -1.30775  -1.23111  -1.14735  -1.09865
 Alpha  occ. eigenvalues --   -1.02733  -1.01230  -0.94539  -0.89676  -0.85479
 Alpha  occ. eigenvalues --   -0.82549  -0.78513  -0.77583  -0.75173  -0.72014
 Alpha  occ. eigenvalues --   -0.70295  -0.68898  -0.67339  -0.65071  -0.63638
 Alpha  occ. eigenvalues --   -0.62434  -0.60259  -0.57643  -0.56932  -0.55096
 Alpha  occ. eigenvalues --   -0.54581  -0.50731  -0.50371  -0.48746  -0.48090
 Alpha  occ. eigenvalues --   -0.47636  -0.46193  -0.46000  -0.43577  -0.41672
 Alpha  occ. eigenvalues --   -0.39951  -0.33583
 Alpha virt. eigenvalues --    0.07762   0.11469   0.17331   0.21715   0.23917
 Alpha virt. eigenvalues --    0.25336   0.26857   0.28375   0.29075   0.29451
 Alpha virt. eigenvalues --    0.30003   0.31647   0.32022   0.32777   0.33900

 Mulliken charges:
               1
     1  O   -0.482698
     2  N    0.456666
     3  O   -0.453060
     4  C    0.027950
     5  C    0.192940
     6  N   -0.783214
     7  C    0.058300
     8  H    0.179586
     9  C   -0.300784
    10  C   -0.327673
    11  C   -0.321406
    12  C   -0.306862
    13  C   -0.037598
    14  H    0.191181
    15  N   -0.511734
    16  C    0.120013
    17  H    0.280889
    18  H    0.403891
    19  H    0.189701
    20  H    0.161595
    21  H    0.174346
    22  H    0.149169
    23  H    0.199655
    24  H    0.164307
    25  H    0.187072
    26  H    0.150276
    27  H    0.237494
 Sum of Mulliken charges =  -0.00000

 Dipole moment (field-independent basis, Debye):
    X=              5.1511    Y=              4.8682    Z=              1.1257  Tot=              7.1764
 Quadrupole moment (field-independent basis, Debye-Ang):
   XX=           -104.5395   YY=            -78.4104   ZZ=            -82.8487
   XY=             -2.1356   XZ=             -1.4987   YZ=              3.8994

 Normal termination of Gaussian 16 at Fri Jun 30 14:31:10 2023.
