 Gaussian 16, Revision C.02,
 Gaussian 16:  ES64L-G16RevC.02  7-Dec-2021

 ---------------------------------------------------------
 #MP2/6-31G* SCF=Tight Opt=(ModRedun, MaxCycle=20 ) NoSymm
 ---------------------------------------------------------

 --------
 MolName:
 --------
 Symbolic Z-matrix:
 Charge =  0 Multiplicity = 1

 SCF Done:  E(RHF) =  -661.273780606     A.U. after   17 cycles
 E2 =    -0.2039536648D+01 EUMP2 =    -0.66331331725333D+03
 SCF Done:  E(RHF) =  -661.285619151     A.U. after   14 cycles
 E2 =    -0.2037736060D+01 EUMP2 =    -0.66332335521087D+03
 SCF Done:  E(RHF) =  -661.285611880     A.U. after   15 cycles
 E2 =    -0.2039125878D+01 EUMP2 =    -0.66332473775816D+03
 SCF Done:  E(RHF) =  -661.279590852     A.U. after   16 cycles
 E2 =    -0.2041737266D+01 EUMP2 =    -0.66332132811812D+03
 SCF Done:  E(RHF) =  -661.285212240     A.U. after   15 cycles
 E2 =    -0.2040353440D+01 EUMP2 =    -0.66332556568020D+03
 SCF Done:  E(RHF) =  -661.285569102     A.U. after   13 cycles
 E2 =    -0.2040266235D+01 EUMP2 =    -0.66332583533644D+03
 SCF Done:  E(RHF) =  -661.286022704     A.U. after   13 cycles
 E2 =    -0.2039892721D+01 EUMP2 =    -0.66332591542518D+03
 SCF Done:  E(RHF) =  -661.286080770     A.U. after   11 cycles
 E2 =    -0.2039848280D+01 EUMP2 =    -0.66332592905020D+03
 SCF Done:  E(RHF) =  -661.286067073     A.U. after   10 cycles
 E2 =    -0.2039863532D+01 EUMP2 =    -0.66332593060491D+03
 Optimization completed.
    -- Stationary point found.

                          Input orientation:
 ---------------------------------------------------------------------
 Center     Atomic      Atomic             Coordinates (Angstroms)
 Number     Number       Type             X           Y           Z
 ---------------------------------------------------------------------
      1          8           0       -3.760243   -0.104074    0.907755
      2          7           0       -3.108329   -0.220337   -0.148687
      3          8           0       -3.580857   -0.604093   -1.236525
      4          6           0       -1.671350    0.007606   -0.099650
      5          6           0       -1.300549    1.239436    0.359874
      6          7           0       -0.054238    1.747417    0.463020
      7          6           0        1.206201    1.016159    0.403805
      8          1           0        1.851852    1.492622    1.156865
      9          6           0        1.923569    1.102436   -0.941773
     10          6           0        3.315269    0.474415   -0.803128
     11          6           0        3.250218   -0.956738   -0.263215
     12          6           0        2.443526   -1.039296    1.034262
     13          6           0        1.039284   -0.464181    0.813656
     14          1           0        0.447890   -0.495793    1.742326
     15          7           0        0.400941   -1.303738   -0.194357
     16          6           0       -0.843641   -1.106744   -0.492469
     17          1           0       -2.094933    1.934084    0.625954
     18          1           0       -0.003540    2.684324    0.843519
     19          1           0        1.331188    0.574437   -1.697012
     20          1           0        2.000104    2.150547   -1.255945
     21          1           0        3.828166    0.490923   -1.771634
     22          1           0        3.914954    1.095031   -0.122079
     23          1           0        2.772778   -1.606041   -1.003970
     24          1           0        4.264635   -1.339860   -0.100379
     25          1           0        2.349728   -2.081139    1.357706
     26          1           0        2.948639   -0.488940    1.839951
     27          1           0       -1.313261   -1.835441   -1.157858
 ---------------------------------------------------------------------

 Alpha  occ. eigenvalues --  -20.60435 -20.60275 -15.84941 -15.63015 -15.56311
 Alpha  occ. eigenvalues --  -11.34633 -11.30027 -11.29271 -11.28709 -11.27032
 Alpha  occ. eigenvalues --  -11.23348 -11.22972 -11.22549 -11.21945  -1.57716
 Alpha  occ. eigenvalues --   -1.37468  -1.30150  -1.23099  -1.14692  -1.09795
 Alpha  occ. eigenvalues --   -1.02545  -1.01037  -0.94492  -0.89844  -0.85215
 Alpha  occ. eigenvalues --   -0.82610  -0.78276  -0.77873  -0.74940  -0.71942
 Alpha  occ. eigenvalues --   -0.70868  -0.68681  -0.67413  -0.65096  -0.63484
 Alpha  occ. eigenvalues --   -0.62077  -0.60384  -0.57501  -0.56747  -0.54916
 Alpha  occ. eigenvalues --   -0.54277  -0.51069  -0.50213  -0.49159  -0.48214
 Alpha  occ. eigenvalues --   -0.47927  -0.46254  -0.45803  -0.43815  -0.41695
 Alpha  occ. eigenvalues --   -0.39798  -0.33298
 Alpha virt. eigenvalues --    0.08167   0.10939   0.17474   0.21225   0.23306
 Alpha virt. eigenvalues --    0.24736   0.26589   0.28277   0.29245   0.29511
 Alpha virt. eigenvalues --    0.29895   0.31794   0.32027   0.32855   0.34149

 Mulliken charges:
               1
     1  O   -0.455241
     2  N    0.451617
     3  O   -0.447821
     4  C    0.041168
     5  C    0.176408
     6  N   -0.782808
     7  C    0.060766
     8  H    0.177642
     9  C   -0.299880
    10  C   -0.327886
    11  C   -0.321704
    12  C   -0.305959
    13  C   -0.043363
    14  H    0.192234
    15  N   -0.505926
    16  C    0.114492
    17  H    0.262691
    18  H    0.399102
    19  H    0.189120
    20  H    0.162637
    21  H    0.173728
    22  H    0.148661
    23  H    0.198719
    24  H    0.163895
    25  H    0.185708
    26  H    0.150355
    27  H    0.241645
 Sum of Mulliken charges =  -0.00000

 Dipole moment (field-independent basis, Debye):
    X=              4.6981    Y=              4.4381    Z=              1.6846  Tot=              6.6788
 Quadrupole moment (field-independent basis, Debye-Ang):
   XX=           -102.8775   YY=            -76.1373   ZZ=            -85.6381
   XY=             -2.7032   XZ=              0.1006   YZ=              2.5304

 Normal termination of Gaussian 16 at Fri Jun 30 05:32:52 2023.
