 Gaussian 16, Revision C.02,
 Gaussian 16:  ES64L-G16RevC.02  7-Dec-2021

 ---------------------------------------------------------
 #MP2/6-31G* SCF=Tight Opt=(ModRedun, MaxCycle=20 ) NoSymm
 ---------------------------------------------------------

 --------
 MolName:
 --------
 Symbolic Z-matrix:
 Charge =  0 Multiplicity = 1

 SCF Done:  E(RHF) =  -661.276550911     A.U. after   17 cycles
 E2 =    -0.2038976185D+01 EUMP2 =    -0.66331552709627D+03
 SCF Done:  E(RHF) =  -661.289022266     A.U. after   15 cycles
 E2 =    -0.2036653815D+01 EUMP2 =    -0.66332567608055D+03
 SCF Done:  E(RHF) =  -661.280008112     A.U. after   18 cycles
 E2 =    -0.2039040567D+01 EUMP2 =    -0.66331904867892D+03
 SCF Done:  E(RHF) =  -661.288358971     A.U. after   15 cycles
 E2 =    -0.2039198487D+01 EUMP2 =    -0.66332755745835D+03
 SCF Done:  E(RHF) =  -661.288959292     A.U. after   13 cycles
 E2 =    -0.2039206548D+01 EUMP2 =    -0.66332816584085D+03
 SCF Done:  E(RHF) =  -661.289948932     A.U. after   13 cycles
 E2 =    -0.2038532063D+01 EUMP2 =    -0.66332848099473D+03
 SCF Done:  E(RHF) =  -661.290039336     A.U. after   12 cycles
 E2 =    -0.2038491172D+01 EUMP2 =    -0.66332853050714D+03
 SCF Done:  E(RHF) =  -661.290002172     A.U. after   11 cycles
 E2 =    -0.2038540925D+01 EUMP2 =    -0.66332854309673D+03
 SCF Done:  E(RHF) =  -661.289926598     A.U. after   11 cycles
 E2 =    -0.2038618821D+01 EUMP2 =    -0.66332854541926D+03
 SCF Done:  E(RHF) =  -661.289926701     A.U. after    9 cycles
 E2 =    -0.2038618884D+01 EUMP2 =    -0.66332854558486D+03
 Optimization completed.
    -- Stationary point found.

                          Input orientation:
 ---------------------------------------------------------------------
 Center     Atomic      Atomic             Coordinates (Angstroms)
 Number     Number       Type             X           Y           Z
 ---------------------------------------------------------------------
      1          8           0       -3.791700    0.070450    0.852264
      2          7           0       -3.109649   -0.216125   -0.151603
      3          8           0       -3.561492   -0.743045   -1.186829
      4          6           0       -1.673121    0.000173   -0.092599
      5          6           0       -1.300814    1.233754    0.365072
      6          7           0       -0.056010    1.738369    0.475671
      7          6           0        1.206091    1.010852    0.411046
      8          1           0        1.850584    1.484741    1.166740
      9          6           0        1.922372    1.106877   -0.934466
     10          6           0        3.315175    0.480353   -0.800130
     11          6           0        3.252420   -0.954186   -0.268979
     12          6           0        2.446226   -1.046092    1.028239
     13          6           0        1.041169   -0.471202    0.812475
     14          1           0        0.451191   -0.509551    1.741775
     15          7           0        0.403067   -1.305207   -0.200690
     16          6           0       -0.841776   -1.108354   -0.497902
     17          1           0       -2.096674    1.927455    0.627878
     18          1           0       -0.005271    2.681676    0.840405
     19          1           0        1.330467    0.582374   -1.692462
     20          1           0        1.997331    2.156993   -1.242475
     21          1           0        3.827608    0.503653   -1.768731
     22          1           0        3.914063    1.097837   -0.115561
     23          1           0        2.775666   -1.599565   -1.013591
     24          1           0        4.267470   -1.336746   -0.108883
     25          1           0        2.353502   -2.090173    1.344675
     26          1           0        2.951129   -0.500713    1.837458
     27          1           0       -1.310015   -1.832608   -1.167797
 ---------------------------------------------------------------------

 Alpha  occ. eigenvalues --  -20.60114 -20.60007 -15.84892 -15.63279 -15.56250
 Alpha  occ. eigenvalues --  -11.34765 -11.29915 -11.29360 -11.28697 -11.27063
 Alpha  occ. eigenvalues --  -11.23440 -11.23029 -11.22580 -11.21979  -1.57575
 Alpha  occ. eigenvalues --   -1.37303  -1.30350  -1.23085  -1.14712  -1.09821
 Alpha  occ. eigenvalues --   -1.02607  -1.01107  -0.94482  -0.89819  -0.85295
 Alpha  occ. eigenvalues --   -0.82591  -0.78343  -0.77777  -0.75002  -0.71983
 Alpha  occ. eigenvalues --   -0.70660  -0.68752  -0.67555  -0.65024  -0.63579
 Alpha  occ. eigenvalues --   -0.62137  -0.60407  -0.57568  -0.56789  -0.54946
 Alpha  occ. eigenvalues --   -0.54332  -0.50964  -0.50182  -0.49101  -0.48147
 Alpha  occ. eigenvalues --   -0.47867  -0.46305  -0.45828  -0.43784  -0.41717
 Alpha  occ. eigenvalues --   -0.39789  -0.33384
 Alpha virt. eigenvalues --    0.08080   0.11138   0.17449   0.21434   0.23362
 Alpha virt. eigenvalues --    0.24785   0.26659   0.28327   0.29204   0.29490
 Alpha virt. eigenvalues --    0.30182   0.31812   0.31998   0.32831   0.34108

 Mulliken charges:
               1
     1  O   -0.463410
     2  N    0.458515
     3  O   -0.453261
     4  C    0.033449
     5  C    0.179554
     6  N   -0.782514
     7  C    0.061223
     8  H    0.178337
     9  C   -0.300430
    10  C   -0.327903
    11  C   -0.321766
    12  C   -0.305948
    13  C   -0.042608
    14  H    0.191806
    15  N   -0.507336
    16  C    0.112799
    17  H    0.269021
    18  H    0.400511
    19  H    0.189483
    20  H    0.162328
    21  H    0.173983
    22  H    0.148838
    23  H    0.199042
    24  H    0.164064
    25  H    0.185976
    26  H    0.150322
    27  H    0.245925
 Sum of Mulliken charges =  -0.00000

 Dipole moment (field-independent basis, Debye):
    X=              4.8613    Y=              4.4800    Z=              1.6680  Tot=              6.8180
 Quadrupole moment (field-independent basis, Debye-Ang):
   XX=           -103.6141   YY=            -76.3540   ZZ=            -85.1770
   XY=             -2.4797   XZ=              0.2064   YZ=              1.8644

 Normal termination of Gaussian 16 at Fri Jun 30 05:57:19 2023.
