 Gaussian 16, Revision C.02,
 Gaussian 16:  ES64L-G16RevC.02  7-Dec-2021

 ---------------------------------------------------------
 #MP2/6-31G* SCF=Tight Opt=(ModRedun, MaxCycle=20 ) NoSymm
 ---------------------------------------------------------

 --------
 MolName:
 --------
 Symbolic Z-matrix:
 Charge =  0 Multiplicity = 1

 SCF Done:  E(RHF) =  -661.278677071     A.U. after   17 cycles
 E2 =    -0.2038482810D+01 EUMP2 =    -0.66331715988107D+03
 SCF Done:  E(RHF) =  -661.291926440     A.U. after   15 cycles
 E2 =    -0.2035538756D+01 EUMP2 =    -0.66332746519607D+03
 SCF Done:  E(RHF) =  -661.278992105     A.U. after   18 cycles
 E2 =    -0.2037988685D+01 EUMP2 =    -0.66331698079026D+03
 SCF Done:  E(RHF) =  -661.291806301     A.U. after   15 cycles
 E2 =    -0.2037885416D+01 EUMP2 =    -0.66332969171698D+03
 SCF Done:  E(RHF) =  -661.292453264     A.U. after   13 cycles
 E2 =    -0.2037937496D+01 EUMP2 =    -0.66333039076045D+03
 SCF Done:  E(RHF) =  -661.293371905     A.U. after   12 cycles
 E2 =    -0.2037306310D+01 EUMP2 =    -0.66333067821569D+03
 SCF Done:  E(RHF) =  -661.293564792     A.U. after   13 cycles
 E2 =    -0.2037201659D+01 EUMP2 =    -0.66333076645115D+03
 SCF Done:  E(RHF) =  -661.293506879     A.U. after   11 cycles
 E2 =    -0.2037272401D+01 EUMP2 =    -0.66333077927991D+03
 SCF Done:  E(RHF) =  -661.293390313     A.U. after   11 cycles
 E2 =    -0.2037392135D+01 EUMP2 =    -0.66333078244849D+03
 Optimization completed.
    -- Stationary point found.

                          Input orientation:
 ---------------------------------------------------------------------
 Center     Atomic      Atomic             Coordinates (Angstroms)
 Number     Number       Type             X           Y           Z
 ---------------------------------------------------------------------
      1          8           0       -3.822297    0.227892    0.772087
      2          7           0       -3.112671   -0.213059   -0.153771
      3          8           0       -3.546682   -0.866038   -1.122374
      4          6           0       -1.675983   -0.008589   -0.078231
      5          6           0       -1.301575    1.229095    0.370025
      6          7           0       -0.057529    1.728737    0.489947
      7          6           0        1.205900    1.004669    0.419115
      8          1           0        1.849973    1.476064    1.176753
      9          6           0        1.920070    1.110695   -0.926757
     10          6           0        3.314272    0.486233   -0.797607
     11          6           0        3.254862   -0.951655   -0.275135
     12          6           0        2.450107   -1.053156    1.022283
     13          6           0        1.043953   -0.479063    0.812387
     14          1           0        0.456139   -0.524285    1.742782
     15          7           0        0.405353   -1.306325   -0.206165
     16          6           0       -0.840010   -1.108808   -0.501047
     17          1           0       -2.098087    1.924602    0.624409
     18          1           0       -0.005654    2.679523    0.835215
     19          1           0        1.328438    0.589621   -1.687269
     20          1           0        1.992937    2.162874   -1.228444
     21          1           0        3.825484    0.516512   -1.766647
     22          1           0        3.912604    1.100834   -0.109974
     23          1           0        2.778645   -1.593378   -1.023215
     24          1           0        4.270842   -1.333079   -0.118322
     25          1           0        2.359111   -2.099452    1.331831
     26          1           0        2.955183   -0.512530    1.834604
     27          1           0       -1.306425   -1.826934   -1.177469
 ---------------------------------------------------------------------

 Alpha  occ. eigenvalues --  -20.59792 -20.59768 -15.84854 -15.63520 -15.56206
 Alpha  occ. eigenvalues --  -11.34868 -11.29802 -11.29436 -11.28688 -11.27087
 Alpha  occ. eigenvalues --  -11.23526 -11.23081 -11.22609 -11.22011  -1.57450
 Alpha  occ. eigenvalues --   -1.37146  -1.30525  -1.23072  -1.14721  -1.09833
 Alpha  occ. eigenvalues --   -1.02663  -1.01168  -0.94469  -0.89792  -0.85372
 Alpha  occ. eigenvalues --   -0.82560  -0.78416  -0.77677  -0.75055  -0.72011
 Alpha  occ. eigenvalues --   -0.70454  -0.68856  -0.67686  -0.64952  -0.63665
 Alpha  occ. eigenvalues --   -0.62195  -0.60408  -0.57620  -0.56836  -0.54973
 Alpha  occ. eigenvalues --   -0.54391  -0.50901  -0.50137  -0.49024  -0.48113
 Alpha  occ. eigenvalues --   -0.47747  -0.46341  -0.45856  -0.43762  -0.41721
 Alpha  occ. eigenvalues --   -0.39796  -0.33478
 Alpha virt. eigenvalues --    0.07991   0.11287   0.17428   0.21642   0.23517
 Alpha virt. eigenvalues --    0.24858   0.26737   0.28382   0.29169   0.29469
 Alpha virt. eigenvalues --    0.30441   0.31837   0.31989   0.32816   0.34073

 Mulliken charges:
               1
     1  O   -0.472051
     2  N    0.466394
     3  O   -0.458631
     4  C    0.025231
     5  C    0.181903
     6  N   -0.782543
     7  C    0.061688
     8  H    0.178929
     9  C   -0.300938
    10  C   -0.327918
    11  C   -0.321787
    12  C   -0.306001
    13  C   -0.041647
    14  H    0.191428
    15  N   -0.508471
    16  C    0.112139
    17  H    0.275711
    18  H    0.401804
    19  H    0.189794
    20  H    0.161927
    21  H    0.174197
    22  H    0.149008
    23  H    0.199331
    24  H    0.164213
    25  H    0.186196
    26  H    0.150353
    27  H    0.249742
 Sum of Mulliken charges =  -0.00000

 Dipole moment (field-independent basis, Debye):
    X=              5.0186    Y=              4.5125    Z=              1.6552  Tot=              6.9490
 Quadrupole moment (field-independent basis, Debye-Ang):
   XX=           -104.3521   YY=            -76.6980   ZZ=            -84.5973
   XY=             -2.2307   XZ=              0.2310   YZ=              1.3426

 Normal termination of Gaussian 16 at Fri Jun 30 06:19:04 2023.
