 Gaussian 16, Revision C.02,
 Gaussian 16:  ES64L-G16RevC.02  7-Dec-2021

 ---------------------------------------------------------
 #MP2/6-31G* SCF=Tight Opt=(ModRedun, MaxCycle=20 ) NoSymm
 ---------------------------------------------------------

 --------
 MolName:
 --------
 Symbolic Z-matrix:
 Charge =  0 Multiplicity = 1

 SCF Done:  E(RHF) =  -661.280069554     A.U. after   17 cycles
 E2 =    -0.2038056329D+01 EUMP2 =    -0.66331812588307D+03
 SCF Done:  E(RHF) =  -661.294552890     A.U. after   15 cycles
 E2 =    -0.2034479522D+01 EUMP2 =    -0.66332903241201D+03
 SCF Done:  E(RHF) =  -661.281263461     A.U. after   18 cycles
 E2 =    -0.2036868533D+01 EUMP2 =    -0.66331813199388D+03
 SCF Done:  E(RHF) =  -661.294145185     A.U. after   15 cycles
 E2 =    -0.2036931002D+01 EUMP2 =    -0.66333107618684D+03
 SCF Done:  E(RHF) =  -661.295150268     A.U. after   13 cycles
 E2 =    -0.2036939457D+01 EUMP2 =    -0.66333208972525D+03
 SCF Done:  E(RHF) =  -661.296146200     A.U. after   12 cycles
 E2 =    -0.2036211113D+01 EUMP2 =    -0.66333235731261D+03
 SCF Done:  E(RHF) =  -661.296395234     A.U. after   12 cycles
 E2 =    -0.2036065334D+01 EUMP2 =    -0.66333246056772D+03
 SCF Done:  E(RHF) =  -661.296332235     A.U. after   11 cycles
 E2 =    -0.2036139419D+01 EUMP2 =    -0.66333247165375D+03
 SCF Done:  E(RHF) =  -661.296218178     A.U. after   10 cycles
 E2 =    -0.2036256600D+01 EUMP2 =    -0.66333247477826D+03
 SCF Done:  E(RHF) =  -661.296210841     A.U. after    9 cycles
 E2 =    -0.2036264091D+01 EUMP2 =    -0.66333247493263D+03
 Optimization completed.
    -- Stationary point found.

                          Input orientation:
 ---------------------------------------------------------------------
 Center     Atomic      Atomic             Coordinates (Angstroms)
 Number     Number       Type             X           Y           Z
 ---------------------------------------------------------------------
      1          8           0       -3.848568    0.368170    0.672866
      2          7           0       -3.116558   -0.211410   -0.153747
      3          8           0       -3.536481   -0.980481   -1.039571
      4          6           0       -1.679512   -0.016534   -0.060757
      5          6           0       -1.302128    1.226009    0.374828
      6          7           0       -0.058629    1.720283    0.503165
      7          6           0        1.205606    0.998916    0.426637
      8          1           0        1.849494    1.467560    1.186227
      9          6           0        1.918230    1.114391   -0.919346
     10          6           0        3.313694    0.491743   -0.794962
     11          6           0        3.257171   -0.949297   -0.280948
     12          6           0        2.453560   -1.060023    1.016485
     13          6           0        1.046516   -0.486199    0.812422
     14          1           0        0.460865   -0.537828    1.743879
     15          7           0        0.407119   -1.306079   -0.211867
     16          6           0       -0.838646   -1.106770   -0.504032
     17          1           0       -2.098459    1.924647    0.619307
     18          1           0       -0.005354    2.676941    0.831836
     19          1           0        1.326925    0.596886   -1.682448
     20          1           0        1.989270    2.168522   -1.214778
     21          1           0        3.824058    0.528679   -1.764203
     22          1           0        3.911403    1.103397   -0.104187
     23          1           0        2.781578   -1.587310   -1.032536
     24          1           0        4.273943   -1.329752   -0.127075
     25          1           0        2.363906   -2.108447    1.319176
     26          1           0        2.958928   -0.524400    1.831952
     27          1           0       -1.302912   -1.817602   -1.188310
 ---------------------------------------------------------------------

 Alpha  occ. eigenvalues --  -20.59565 -20.59488 -15.84826 -15.63735 -15.56174
 Alpha  occ. eigenvalues --  -11.34940 -11.29692 -11.29501 -11.28680 -11.27105
 Alpha  occ. eigenvalues --  -11.23601 -11.23128 -11.22638 -11.22040  -1.57342
 Alpha  occ. eigenvalues --   -1.37002  -1.30690  -1.23060  -1.14719  -1.09833
 Alpha  occ. eigenvalues --   -1.02713  -1.01222  -0.94457  -0.89764  -0.85445
 Alpha  occ. eigenvalues --   -0.82522  -0.78489  -0.77582  -0.75102  -0.72033
 Alpha  occ. eigenvalues --   -0.70250  -0.68996  -0.67796  -0.64890  -0.63731
 Alpha  occ. eigenvalues --   -0.62247  -0.60389  -0.57661  -0.56887  -0.54998
 Alpha  occ. eigenvalues --   -0.54448  -0.50866  -0.50088  -0.48931  -0.48106
 Alpha  occ. eigenvalues --   -0.47598  -0.46354  -0.45888  -0.43749  -0.41718
 Alpha  occ. eigenvalues --   -0.39809  -0.33576
 Alpha virt. eigenvalues --    0.07884   0.11416   0.17405   0.21785   0.23737
 Alpha virt. eigenvalues --    0.24975   0.26826   0.28437   0.29138   0.29471
 Alpha virt. eigenvalues --    0.30645   0.31855   0.32006   0.32807   0.34046

 Mulliken charges:
               1
     1  O   -0.480818
     2  N    0.475128
     3  O   -0.463644
     4  C    0.016598
     5  C    0.183278
     6  N   -0.782017
     7  C    0.061836
     8  H    0.179387
     9  C   -0.301339
    10  C   -0.327924
    11  C   -0.321742
    12  C   -0.306098
    13  C   -0.040648
    14  H    0.191040
    15  N   -0.509269
    16  C    0.112506
    17  H    0.282201
    18  H    0.402900
    19  H    0.190051
    20  H    0.161575
    21  H    0.174385
    22  H    0.149156
    23  H    0.199567
    24  H    0.164332
    25  H    0.186393
    26  H    0.150394
    27  H    0.252772
 Sum of Mulliken charges =  -0.00000

 Dipole moment (field-independent basis, Debye):
    X=              5.1611    Y=              4.5420    Z=              1.6517  Tot=              7.0707
 Quadrupole moment (field-independent basis, Debye-Ang):
   XX=           -105.0295   YY=            -77.1716   ZZ=            -83.9154
   XY=             -2.0105   XZ=              0.1921   YZ=              1.0094

 Normal termination of Gaussian 16 at Fri Jun 30 06:43:10 2023.
