 Gaussian 16, Revision C.02,
 Gaussian 16:  ES64L-G16RevC.02  7-Dec-2021

 ---------------------------------------------------------
 #MP2/6-31G* SCF=Tight Opt=(ModRedun, MaxCycle=20 ) NoSymm
 ---------------------------------------------------------

 --------
 MolName:
 --------
 Symbolic Z-matrix:
 Charge =  0 Multiplicity = 1

 SCF Done:  E(RHF) =  -661.280777440     A.U. after   16 cycles
 E2 =    -0.2037700831D+01 EUMP2 =    -0.66331847827134D+03
 SCF Done:  E(RHF) =  -661.296622487     A.U. after   15 cycles
 E2 =    -0.2033580854D+01 EUMP2 =    -0.66333020334062D+03
 SCF Done:  E(RHF) =  -661.287125345     A.U. after   17 cycles
 E2 =    -0.2035752851D+01 EUMP2 =    -0.66332287819677D+03
 SCF Done:  E(RHF) =  -661.295190107     A.U. after   15 cycles
 E2 =    -0.2036182289D+01 EUMP2 =    -0.66333137239512D+03
 SCF Done:  E(RHF) =  -661.297173949     A.U. after   13 cycles
 E2 =    -0.2036068794D+01 EUMP2 =    -0.66333324274359D+03
 SCF Done:  E(RHF) =  -661.298113587     A.U. after   12 cycles
 E2 =    -0.2035383110D+01 EUMP2 =    -0.66333349669633D+03
 SCF Done:  E(RHF) =  -661.298386647     A.U. after   12 cycles
 E2 =    -0.2035200701D+01 EUMP2 =    -0.66333358734851D+03
 SCF Done:  E(RHF) =  -661.298337509     A.U. after   11 cycles
 E2 =    -0.2035258625D+01 EUMP2 =    -0.66333359613409D+03
 SCF Done:  E(RHF) =  -661.298286286     A.U. after   10 cycles
 E2 =    -0.2035311245D+01 EUMP2 =    -0.66333359753079D+03
 SCF Done:  E(RHF) =  -661.298284513     A.U. after    9 cycles
 E2 =    -0.2035313110D+01 EUMP2 =    -0.66333359762307D+03
 Optimization completed.
    -- Stationary point found.

                          Input orientation:
 ---------------------------------------------------------------------
 Center     Atomic      Atomic             Coordinates (Angstroms)
 Number     Number       Type             X           Y           Z
 ---------------------------------------------------------------------
      1          8           0       -3.869961    0.491695    0.553771
      2          7           0       -3.120611   -0.210850   -0.152958
      3          8           0       -3.529548   -1.090828   -0.934378
      4          6           0       -1.683186   -0.021944   -0.044773
      5          6           0       -1.302330    1.224776    0.378469
      6          7           0       -0.058915    1.713222    0.515982
      7          6           0        1.205556    0.993533    0.433931
      8          1           0        1.849553    1.458912    1.195515
      9          6           0        1.916847    1.118257   -0.911972
     10          6           0        3.313256    0.496824   -0.792215
     11          6           0        3.259029   -0.947352   -0.286817
     12          6           0        2.456389   -1.067115    1.010462
     13          6           0        1.048759   -0.493005    0.812146
     14          1           0        0.465037   -0.550775    1.744512
     15          7           0        0.408237   -1.304558   -0.218200
     16          6           0       -0.837773   -1.102539   -0.507524
     17          1           0       -2.098004    1.927071    0.612906
     18          1           0       -0.003874    2.674096    0.832188
     19          1           0        1.325774    0.604742   -1.677855
     20          1           0        1.986553    2.174325   -1.200923
     21          1           0        3.822888    0.540304   -1.761559
     22          1           0        3.910529    1.105202   -0.098186
     23          1           0        2.783936   -1.581412   -1.042001
     24          1           0        4.276441   -1.327187   -0.135751
     25          1           0        2.367626   -2.117611    1.306203
     26          1           0        2.962195   -0.536777    1.829129
     27          1           0       -1.299391   -1.805016   -1.201093
 ---------------------------------------------------------------------

 Alpha  occ. eigenvalues --  -20.59400 -20.59224 -15.84805 -15.63915 -15.56153
 Alpha  occ. eigenvalues --  -11.34984 -11.29604 -11.29554 -11.28673 -11.27117
 Alpha  occ. eigenvalues --  -11.23662 -11.23167 -11.22663 -11.22064  -1.57255
 Alpha  occ. eigenvalues --   -1.36877  -1.30824  -1.23051  -1.14712  -1.09824
 Alpha  occ. eigenvalues --   -1.02754  -1.01266  -0.94445  -0.89738  -0.85507
 Alpha  occ. eigenvalues --   -0.82483  -0.78550  -0.77500  -0.75139  -0.72043
 Alpha  occ. eigenvalues --   -0.70043  -0.69177  -0.67873  -0.64848  -0.63774
 Alpha  occ. eigenvalues --   -0.62291  -0.60355  -0.57687  -0.56935  -0.55020
 Alpha  occ. eigenvalues --   -0.54501  -0.50846  -0.50052  -0.48829  -0.48110
 Alpha  occ. eigenvalues --   -0.47461  -0.46332  -0.45925  -0.43739  -0.41710
 Alpha  occ. eigenvalues --   -0.39822  -0.33675
 Alpha virt. eigenvalues --    0.07756   0.11541   0.17379   0.21857   0.23939
 Alpha virt. eigenvalues --    0.25159   0.26922   0.28494   0.29107   0.29499
 Alpha virt. eigenvalues --    0.30775   0.31860   0.32036   0.32803   0.34022

 Mulliken charges:
               1
     1  O   -0.489385
     2  N    0.483953
     3  O   -0.467711
     4  C    0.008093
     5  C    0.184464
     6  N   -0.781387
     7  C    0.061713
     8  H    0.179744
     9  C   -0.301609
    10  C   -0.327939
    11  C   -0.321666
    12  C   -0.306235
    13  C   -0.039561
    14  H    0.190692
    15  N   -0.509794
    16  C    0.113853
    17  H    0.288017
    18  H    0.403784
    19  H    0.190236
    20  H    0.161289
    21  H    0.174528
    22  H    0.149276
    23  H    0.199748
    24  H    0.164428
    25  H    0.186572
    26  H    0.150441
    27  H    0.254454
 Sum of Mulliken charges =  -0.00000

 Dipole moment (field-independent basis, Debye):
    X=              5.2825    Y=              4.5736    Z=              1.6553  Tot=              7.1807
 Quadrupole moment (field-independent basis, Debye-Ang):
   XX=           -105.6044   YY=            -77.7620   ZZ=            -83.1551
   XY=             -1.8536   XZ=              0.1107   YZ=              0.8889

 Normal termination of Gaussian 16 at Fri Jun 30 07:10:21 2023.
