 Gaussian 16, Revision C.02,
 Gaussian 16:  ES64L-G16RevC.02  7-Dec-2021

 ---------------------------------------------------------
 #MP2/6-31G* SCF=Tight Opt=(ModRedun, MaxCycle=20 ) NoSymm
 ---------------------------------------------------------

 --------
 MolName:
 --------
 Symbolic Z-matrix:
 Charge =  0 Multiplicity = 1

 SCF Done:  E(RHF) =  -661.281013873     A.U. after   16 cycles
 E2 =    -0.2037438013D+01 EUMP2 =    -0.66331845188532D+03
 SCF Done:  E(RHF) =  -661.297816746     A.U. after   14 cycles
 E2 =    -0.2032946796D+01 EUMP2 =    -0.66333076354158D+03
 SCF Done:  E(RHF) =  -661.295311913     A.U. after   17 cycles
 E2 =    -0.2034303700D+01 EUMP2 =    -0.66332961561282D+03
 SCF Done:  E(RHF) =  -661.291993230     A.U. after   15 cycles
 E2 =    -0.2036222500D+01 EUMP2 =    -0.66332821573042D+03
 SCF Done:  E(RHF) =  -661.290087994     A.U. after   15 cycles
 E2 =    -0.2036354519D+01 EUMP2 =    -0.66332644251365D+03
 SCF Done:  E(RHF) =  -661.298044818     A.U. after   11 cycles
 E2 =    -0.2033694546D+01 EUMP2 =    -0.66333173936417D+03
 SCF Done:  E(RHF) =  -661.298741948     A.U. after   15 cycles
 E2 =    -0.2035029150D+01 EUMP2 =    -0.66333377109858D+03
 SCF Done:  E(RHF) =  -661.299321132     A.U. after   13 cycles
 E2 =    -0.2034820404D+01 EUMP2 =    -0.66333414153580D+03
 SCF Done:  E(RHF) =  -661.299636703     A.U. after   12 cycles
 E2 =    -0.2034594176D+01 EUMP2 =    -0.66333423087842D+03
 SCF Done:  E(RHF) =  -661.299652563     A.U. after   11 cycles
 E2 =    -0.2034590204D+01 EUMP2 =    -0.66333424276725D+03
 SCF Done:  E(RHF) =  -661.299643618     A.U. after   11 cycles
 E2 =    -0.2034602959D+01 EUMP2 =    -0.66333424657628D+03
 SCF Done:  E(RHF) =  -661.299633668     A.U. after    9 cycles
 E2 =    -0.2034613047D+01 EUMP2 =    -0.66333424671547D+03
 Optimization completed.
    -- Stationary point found.

                          Input orientation:
 ---------------------------------------------------------------------
 Center     Atomic      Atomic             Coordinates (Angstroms)
 Number     Number       Type             X           Y           Z
 ---------------------------------------------------------------------
      1          8           0       -3.886077    0.596525    0.412788
      2          7           0       -3.123472   -0.211294   -0.152714
      3          8           0       -3.522778   -1.195922   -0.803357
      4          6           0       -1.686108   -0.023095   -0.033713
      5          6           0       -1.302011    1.225924    0.381464
      6          7           0       -0.058267    1.708527    0.527941
      7          6           0        1.205672    0.988952    0.440691
      8          1           0        1.849995    1.450315    1.204450
      9          6           0        1.916123    1.122456   -0.904856
     10          6           0        3.312958    0.501146   -0.789487
     11          6           0        3.259918   -0.946147   -0.292900
     12          6           0        2.457943   -1.074535    1.004009
     13          6           0        1.050124   -0.499268    0.811131
     14          1           0        0.467963   -0.562744    1.744163
     15          7           0        0.408226   -1.302162   -0.225068
     16          6           0       -0.837797   -1.096587   -0.511399
     17          1           0       -2.096849    1.931541    0.607508
     18          1           0       -0.001260    2.670614    0.840397
     19          1           0        1.325064    0.613479   -1.673692
     20          1           0        1.985269    2.180393   -1.187154
     21          1           0        3.822072    0.550900   -1.758796
     22          1           0        3.910147    1.105694   -0.092049
     23          1           0        2.785006   -1.575829   -1.051791
     24          1           0        4.277672   -1.326104   -0.144497
     25          1           0        2.369458   -2.127010    1.292801
     26          1           0        2.964328   -0.549764    1.825911
     27          1           0       -1.297338   -1.790997   -1.213792
 ---------------------------------------------------------------------

 Alpha  occ. eigenvalues --  -20.59284 -20.59023 -15.84784 -15.64050 -15.56136
 Alpha  occ. eigenvalues --  -11.35006 -11.29593 -11.29547 -11.28664 -11.27126
 Alpha  occ. eigenvalues --  -11.23706 -11.23195 -11.22682 -11.22082  -1.57187
 Alpha  occ. eigenvalues --   -1.36779  -1.30920  -1.23050  -1.14702  -1.09813
 Alpha  occ. eigenvalues --   -1.02785  -1.01293  -0.94444  -0.89715  -0.85549
 Alpha  occ. eigenvalues --   -0.82451  -0.78592  -0.77439  -0.75166  -0.72041
 Alpha  occ. eigenvalues --   -0.69827  -0.69390  -0.67904  -0.64837  -0.63794
 Alpha  occ. eigenvalues --   -0.62324  -0.60320  -0.57700  -0.56974  -0.55041
 Alpha  occ. eigenvalues --   -0.54543  -0.50823  -0.50040  -0.48732  -0.48115
 Alpha  occ. eigenvalues --   -0.47373  -0.46273  -0.45968  -0.43726  -0.41702
 Alpha  occ. eigenvalues --   -0.39832  -0.33761
 Alpha virt. eigenvalues --    0.07620   0.11665   0.17351   0.21878   0.24063
 Alpha virt. eigenvalues --    0.25392   0.27021   0.28564   0.29077   0.29552
 Alpha virt. eigenvalues --    0.30818   0.31853   0.32055   0.32795   0.33998

 Mulliken charges:
               1
     1  O   -0.497204
     2  N    0.491106
     3  O   -0.469856
     4  C    0.001261
     5  C    0.185997
     6  N   -0.780750
     7  C    0.061327
     8  H    0.179963
     9  C   -0.301685
    10  C   -0.327958
    11  C   -0.321576
    12  C   -0.306384
    13  C   -0.038505
    14  H    0.190345
    15  N   -0.510201
    16  C    0.115926
    17  H    0.292560
    18  H    0.404426
    19  H    0.190319
    20  H    0.161162
    21  H    0.174620
    22  H    0.149353
    23  H    0.199860
    24  H    0.164499
    25  H    0.186753
    26  H    0.150446
    27  H    0.254199
 Sum of Mulliken charges =  -0.00000

 Dipole moment (field-independent basis, Debye):
    X=              5.3721    Y=              4.6067    Z=              1.6743  Tot=              7.2722
 Quadrupole moment (field-independent basis, Debye-Ang):
   XX=           -106.0146   YY=            -78.4428   ZZ=            -82.3510
   XY=             -1.7693   XZ=             -0.0103   YZ=              1.0401

 Normal termination of Gaussian 16 at Fri Jun 30 07:40:19 2023.
