 Gaussian 16, Revision C.02,
 Gaussian 16:  ES64L-G16RevC.02  7-Dec-2021

 ---------------------------------------------------------
 #MP2/6-31G* SCF=Tight Opt=(ModRedun, MaxCycle=20 ) NoSymm
 ---------------------------------------------------------

 --------
 MolName:
 --------
 Symbolic Z-matrix:
 Charge =  0 Multiplicity = 1

 SCF Done:  E(RHF) =  -661.281037425     A.U. after   16 cycles
 E2 =    -0.2037298263D+01 EUMP2 =    -0.66331833568831D+03
 SCF Done:  E(RHF) =  -661.298277059     A.U. after   14 cycles
 E2 =    -0.2032651270D+01 EUMP2 =    -0.66333092832865D+03
 SCF Done:  E(RHF) =  -661.300104834     A.U. after   14 cycles
 E2 =    -0.2033272542D+01 EUMP2 =    -0.66333337737576D+03
 SCF Done:  E(RHF) =  -661.296596105     A.U. after   15 cycles
 E2 =    -0.2035032439D+01 EUMP2 =    -0.66333162854446D+03
 SCF Done:  E(RHF) =  -661.296641489     A.U. after   15 cycles
 E2 =    -0.2036299192D+01 EUMP2 =    -0.66333294068030D+03
 SCF Done:  E(RHF) =  -661.299583929     A.U. after   11 cycles
 E2 =    -0.2034564794D+01 EUMP2 =    -0.66333414872269D+03
 SCF Done:  E(RHF) =  -661.299748049     A.U. after   13 cycles
 E2 =    -0.2034736942D+01 EUMP2 =    -0.66333448499119D+03
 SCF Done:  E(RHF) =  -661.300265699     A.U. after   12 cycles
 E2 =    -0.2034288323D+01 EUMP2 =    -0.66333455402122D+03
 SCF Done:  E(RHF) =  -661.300425718     A.U. after   11 cycles
 E2 =    -0.2034143435D+01 EUMP2 =    -0.66333456915298D+03
 SCF Done:  E(RHF) =  -661.300328634     A.U. after   10 cycles
 E2 =    -0.2034242980D+01 EUMP2 =    -0.66333457161429D+03
 SCF Done:  E(RHF) =  -661.300301837     A.U. after    9 cycles
 E2 =    -0.2034270022D+01 EUMP2 =    -0.66333457185969D+03
 Optimization completed.
    -- Stationary point found.

                          Input orientation:
 ---------------------------------------------------------------------
 Center     Atomic      Atomic             Coordinates (Angstroms)
 Number     Number       Type             X           Y           Z
 ---------------------------------------------------------------------
      1          8           0       -3.894975    0.680461    0.246928
      2          7           0       -3.123452   -0.211931   -0.155358
      3          8           0       -3.514117   -1.287140   -0.649553
      4          6           0       -1.687258   -0.020131   -0.029246
      5          6           0       -1.301317    1.229021    0.383967
      6          7           0       -0.057071    1.706226    0.539856
      7          6           0        1.205835    0.985565    0.447559
      8          1           0        1.851073    1.442207    1.213353
      9          6           0        1.914952    1.126836   -0.897933
     10          6           0        3.311865    0.504836   -0.787564
     11          6           0        3.259389   -0.945312   -0.299317
     12          6           0        2.458741   -1.081213    0.997641
     13          6           0        1.050847   -0.504671    0.810021
     14          1           0        0.470126   -0.573403    1.743609
     15          7           0        0.407440   -1.299999   -0.231022
     16          6           0       -0.838538   -1.091056   -0.513918
     17          1           0       -2.095667    1.937202    0.603249
     18          1           0        0.001567    2.666163    0.858681
     19          1           0        1.323111    0.622414   -1.669151
     20          1           0        1.983885    2.186418   -1.174075
     21          1           0        3.819948    0.560234   -1.757112
     22          1           0        3.909757    1.105388   -0.087274
     23          1           0        2.783776   -1.570605   -1.061373
     24          1           0        4.277317   -1.326018   -0.154033
     25          1           0        2.370286   -2.135384    1.280257
     26          1           0        2.966141   -0.561494    1.822141
     27          1           0       -1.297633   -1.779616   -1.222344
 ---------------------------------------------------------------------

 Alpha  occ. eigenvalues --  -20.59230 -20.58914 -15.84753 -15.64124 -15.56122
 Alpha  occ. eigenvalues --  -11.35014 -11.29617 -11.29537 -11.28646 -11.27132
 Alpha  occ. eigenvalues --  -11.23727 -11.23208 -11.22691 -11.22089  -1.57139
 Alpha  occ. eigenvalues --   -1.36721  -1.30971  -1.23056  -1.14699  -1.09811
 Alpha  occ. eigenvalues --   -1.02802  -1.01307  -0.94460  -0.89695  -0.85567
 Alpha  occ. eigenvalues --   -0.82440  -0.78610  -0.77409  -0.75189  -0.72029
 Alpha  occ. eigenvalues --   -0.69616  -0.69600  -0.67879  -0.64860  -0.63791
 Alpha  occ. eigenvalues --   -0.62349  -0.60292  -0.57702  -0.56996  -0.55063
 Alpha  occ. eigenvalues --   -0.54570  -0.50790  -0.50065  -0.48668  -0.48113
 Alpha  occ. eigenvalues --   -0.47351  -0.46196  -0.46012  -0.43703  -0.41697
 Alpha  occ. eigenvalues --   -0.39839  -0.33817
 Alpha virt. eigenvalues --    0.07507   0.11763   0.17323   0.21868   0.24111
 Alpha virt. eigenvalues --    0.25588   0.27102   0.28648   0.29054   0.29612
 Alpha virt. eigenvalues --    0.30771   0.31829   0.32049   0.32779   0.33971

 Mulliken charges:
               1
     1  O   -0.502782
     2  N    0.493700
     3  O   -0.469276
     4  C   -0.001417
     5  C    0.187786
     6  N   -0.780350
     7  C    0.060741
     8  H    0.180081
     9  C   -0.301578
    10  C   -0.327960
    11  C   -0.321517
    12  C   -0.306546
    13  C   -0.037616
    14  H    0.190060
    15  N   -0.510727
    16  C    0.118414
    17  H    0.295120
    18  H    0.404784
    19  H    0.190284
    20  H    0.161235
    21  H    0.174652
    22  H    0.149372
    23  H    0.199935
    24  H    0.164534
    25  H    0.186934
    26  H    0.150402
    27  H    0.251735
 Sum of Mulliken charges =  -0.00000

 Dipole moment (field-independent basis, Debye):
    X=              5.4176    Y=              4.6305    Z=              1.7184  Tot=              7.3310
 Quadrupole moment (field-independent basis, Debye-Ang):
   XX=           -106.1934   YY=            -79.1383   ZZ=            -81.5916
   XY=             -1.7266   XZ=             -0.2014   YZ=              1.4951

 Normal termination of Gaussian 16 at Fri Jun 30 08:08:23 2023.
