 Gaussian 16, Revision C.02,
 Gaussian 16:  ES64L-G16RevC.02  7-Dec-2021

 ---------------------------------------------------------
 #MP2/6-31G* SCF=Tight Opt=(ModRedun, MaxCycle=20 ) NoSymm
 ---------------------------------------------------------

 --------
 MolName:
 --------
 Symbolic Z-matrix:
 Charge =  0 Multiplicity = 1

 SCF Done:  E(RHF) =  -661.276715460     A.U. after   17 cycles
 E2 =    -0.2038334832D+01 EUMP2 =    -0.66331505029191D+03
 SCF Done:  E(RHF) =  -661.290671744     A.U. after   15 cycles
 E2 =    -0.2035758877D+01 EUMP2 =    -0.66332643062091D+03
 SCF Done:  E(RHF) =  -661.288742526     A.U. after   16 cycles
 E2 =    -0.2037129670D+01 EUMP2 =    -0.66332587219610D+03
 SCF Done:  E(RHF) =  -661.287732945     A.U. after   15 cycles
 E2 =    -0.2039681618D+01 EUMP2 =    -0.66332741456305D+03
 SCF Done:  E(RHF) =  -661.291303760     A.U. after   14 cycles
 E2 =    -0.2038015711D+01 EUMP2 =    -0.66332931947085D+03
 SCF Done:  E(RHF) =  -661.291978910     A.U. after   13 cycles
 E2 =    -0.2037527578D+01 EUMP2 =    -0.66332950648831D+03
 SCF Done:  E(RHF) =  -661.292087888     A.U. after   12 cycles
 E2 =    -0.2037488968D+01 EUMP2 =    -0.66332957685661D+03
 SCF Done:  E(RHF) =  -661.292029492     A.U. after   11 cycles
 E2 =    -0.2037556621D+01 EUMP2 =    -0.66332958611247D+03
 SCF Done:  E(RHF) =  -661.291882413     A.U. after   11 cycles
 E2 =    -0.2037707345D+01 EUMP2 =    -0.66332958975793D+03
 Optimization completed.
    -- Stationary point found.

                          Input orientation:
 ---------------------------------------------------------------------
 Center     Atomic      Atomic             Coordinates (Angstroms)
 Number     Number       Type             X           Y           Z
 ---------------------------------------------------------------------
      1          8           0       -3.740002    0.588052   -0.856826
      2          7           0       -3.100798   -0.229188   -0.163980
      3          8           0       -3.580310   -1.279873    0.308627
      4          6           0       -1.679838   -0.024120    0.049242
      5          6           0       -1.300158    1.285320    0.173141
      6          7           0       -0.056441    1.783153    0.281839
      7          6           0        1.202190    1.051189    0.302949
      8          1           0        1.860685    1.635724    0.962708
      9          6           0        1.886705    0.944725   -1.058993
     10          6           0        3.288508    0.355180   -0.865157
     11          6           0        3.252954   -0.981614   -0.119966
     12          6           0        2.478370   -0.878849    1.195457
     13          6           0        1.062760   -0.352604    0.931376
     14          1           0        0.498164   -0.252826    1.871766
     15          7           0        0.406690   -1.331507    0.069368
     16          6           0       -0.845611   -1.175974   -0.215097
     17          1           0       -2.092038    2.030445    0.190179
     18          1           0        0.004738    2.783184    0.429934
     19          1           0        1.282246    0.307380   -1.713472
     20          1           0        1.944710    1.936054   -1.525310
     21          1           0        3.777614    0.233758   -1.838489
     22          1           0        3.896769    1.074084   -0.297908
     23          1           0        2.766018   -1.736427   -0.745326
     24          1           0        4.275457   -1.327880    0.072145
     25          1           0        2.402935   -1.862924    1.669639
     26          1           0        2.997116   -0.213693    1.899509
     27          1           0       -1.330456   -1.994759   -0.752363
 ---------------------------------------------------------------------

 Alpha  occ. eigenvalues --  -20.59801 -20.59734 -15.84611 -15.63673 -15.56107
 Alpha  occ. eigenvalues --  -11.34899 -11.29985 -11.29458 -11.28487 -11.27073
 Alpha  occ. eigenvalues --  -11.23572 -11.23098 -11.22614 -11.22009  -1.57272
 Alpha  occ. eigenvalues --   -1.36997  -1.30645  -1.23120  -1.14728  -1.09855
 Alpha  occ. eigenvalues --   -1.02684  -1.01180  -0.94527  -0.89684  -0.85433
 Alpha  occ. eigenvalues --   -0.82573  -0.78461  -0.77668  -0.75121  -0.72018
 Alpha  occ. eigenvalues --   -0.70451  -0.68787  -0.67176  -0.65125  -0.63569
 Alpha  occ. eigenvalues --   -0.62425  -0.60246  -0.57599  -0.56896  -0.55077
 Alpha  occ. eigenvalues --   -0.54560  -0.50824  -0.50384  -0.48774  -0.48111
 Alpha  occ. eigenvalues --   -0.47722  -0.46218  -0.45964  -0.43583  -0.41634
 Alpha  occ. eigenvalues --   -0.39997  -0.33453
 Alpha virt. eigenvalues --    0.07964   0.11214   0.17363   0.21649   0.23791
 Alpha virt. eigenvalues --    0.25136   0.26634   0.28234   0.29105   0.29436
 Alpha virt. eigenvalues --    0.29735   0.31629   0.32042   0.32798   0.33913

 Mulliken charges:
               1
     1  O   -0.472787
     2  N    0.446837
     3  O   -0.448378
     4  C    0.035206
     5  C    0.193307
     6  N   -0.784914
     7  C    0.058169
     8  H    0.179180
     9  C   -0.300586
    10  C   -0.327581
    11  C   -0.321330
    12  C   -0.306842
    13  C   -0.038223
    14  H    0.191857
    15  N   -0.511154
    16  C    0.120606
    17  H    0.273732
    18  H    0.403186
    19  H    0.189577
    20  H    0.161438
    21  H    0.174159
    22  H    0.149063
    23  H    0.199429
    24  H    0.164155
    25  H    0.186851
    26  H    0.150346
    27  H    0.234697
 Sum of Mulliken charges =  -0.00000

 Dipole moment (field-independent basis, Debye):
    X=              5.0128    Y=              4.8343    Z=              1.1926  Tot=              7.0655
 Quadrupole moment (field-independent basis, Debye-Ang):
   XX=           -103.8223   YY=            -77.9594   ZZ=            -83.5415
   XY=             -2.3507   XZ=             -1.7008   YZ=              4.2864

 Normal termination of Gaussian 16 at Fri Jun 30 14:05:53 2023.
