 Gaussian 16, Revision C.02,
 Gaussian 16:  ES64L-G16RevC.02  7-Dec-2021

 ---------------------------------------------------------
 #MP2/6-31G* SCF=Tight Opt=(ModRedun, MaxCycle=20 ) NoSymm
 ---------------------------------------------------------

 --------
 MolName:
 --------
 Symbolic Z-matrix:
 Charge =  0 Multiplicity = 1

 SCF Done:  E(RHF) =  -661.273846851     A.U. after   17 cycles
 E2 =    -0.2038914336D+01 EUMP2 =    -0.66331276118628D+03
 SCF Done:  E(RHF) =  -661.286534511     A.U. after   15 cycles
 E2 =    -0.2036962401D+01 EUMP2 =    -0.66332349691167D+03
 SCF Done:  E(RHF) =  -661.278422203     A.U. after   18 cycles
 E2 =    -0.2038856176D+01 EUMP2 =    -0.66331727837931D+03
 SCF Done:  E(RHF) =  -661.286745490     A.U. after   15 cycles
 E2 =    -0.2039377446D+01 EUMP2 =    -0.66332612293625D+03
 SCF Done:  E(RHF) =  -661.287303209     A.U. after   14 cycles
 E2 =    -0.2039293597D+01 EUMP2 =    -0.66332659680523D+03
 SCF Done:  E(RHF) =  -661.288042027     A.U. after   13 cycles
 E2 =    -0.2038725556D+01 EUMP2 =    -0.66332676758248D+03
 SCF Done:  E(RHF) =  -661.288155333     A.U. after   12 cycles
 E2 =    -0.2038657196D+01 EUMP2 =    -0.66332681252925D+03
 SCF Done:  E(RHF) =  -661.288031155     A.U. after   12 cycles
 E2 =    -0.2038796713D+01 EUMP2 =    -0.66332682786862D+03
 SCF Done:  E(RHF) =  -661.287940632     A.U. after   10 cycles
 E2 =    -0.2038889036D+01 EUMP2 =    -0.66332682966813D+03
 Optimization completed.
    -- Stationary point found.

                          Input orientation:
 ---------------------------------------------------------------------
 Center     Atomic      Atomic             Coordinates (Angstroms)
 Number     Number       Type             X           Y           Z
 ---------------------------------------------------------------------
      1          8           0       -3.686319    0.493285   -1.004367
      2          7           0       -3.099785   -0.225833   -0.170437
      3          8           0       -3.623201   -1.190578    0.423134
      4          6           0       -1.678961   -0.025451    0.063613
      5          6           0       -1.300210    1.283766    0.183992
      6          7           0       -0.056030    1.782916    0.296993
      7          6           0        1.202032    1.050472    0.310593
      8          1           0        1.863223    1.630777    0.971394
      9          6           0        1.882518    0.950718   -1.053971
     10          6           0        3.284849    0.359925   -0.867978
     11          6           0        3.251581   -0.980766   -0.129658
     12          6           0        2.481520   -0.884635    1.188818
     13          6           0        1.064994   -0.357411    0.931633
     14          1           0        0.502711   -0.263005    1.873934
     15          7           0        0.406778   -1.332372    0.066959
     16          6           0       -0.846690   -1.175036   -0.211809
     17          1           0       -2.090713    2.030852    0.198469
     18          1           0        0.005242    2.782018    0.449681
     19          1           0        1.275831    0.317037   -1.709951
     20          1           0        1.939072    1.944460   -1.515266
     21          1           0        3.770745    0.243561   -1.843513
     22          1           0        3.895126    1.075656   -0.298947
     23          1           0        2.762398   -1.732236   -0.757253
     24          1           0        4.274630   -1.328274    0.057184
     25          1           0        2.408037   -1.870934    1.658634
     26          1           0        3.002259   -0.222602    1.894277
     27          1           0       -1.333666   -1.991340   -0.752158
 ---------------------------------------------------------------------

 Alpha  occ. eigenvalues --  -20.60048 -20.60033 -15.84642 -15.63440 -15.56145
 Alpha  occ. eigenvalues --  -11.34796 -11.30105 -11.29374 -11.28471 -11.27037
 Alpha  occ. eigenvalues --  -11.23494 -11.23048 -11.22581 -11.21975  -1.57396
 Alpha  occ. eigenvalues --   -1.37132  -1.30478  -1.23129  -1.14708  -1.09828
 Alpha  occ. eigenvalues --   -1.02626  -1.01119  -0.94507  -0.89700  -0.85376
 Alpha  occ. eigenvalues --   -0.82589  -0.78401  -0.77762  -0.75048  -0.72020
 Alpha  occ. eigenvalues --   -0.70626  -0.68697  -0.67031  -0.65183  -0.63493
 Alpha  occ. eigenvalues --   -0.62389  -0.60231  -0.57540  -0.56858  -0.55046
 Alpha  occ. eigenvalues --   -0.54522  -0.50969  -0.50361  -0.48808  -0.48143
 Alpha  occ. eigenvalues --   -0.47792  -0.46222  -0.45930  -0.43608  -0.41578
 Alpha  occ. eigenvalues --   -0.40047  -0.33322
 Alpha virt. eigenvalues --    0.08216   0.10877   0.17405   0.21560   0.23645
 Alpha virt. eigenvalues --    0.24950   0.26415   0.28156   0.29141   0.29435
 Alpha virt. eigenvalues --    0.29489   0.31632   0.32069   0.32827   0.33943

 Mulliken charges:
               1
     1  O   -0.463000
     2  N    0.439172
     3  O   -0.443510
     4  C    0.040759
     5  C    0.192192
     6  N   -0.786906
     7  C    0.058501
     8  H    0.178680
     9  C   -0.300383
    10  C   -0.327510
    11  C   -0.321270
    12  C   -0.306773
    13  C   -0.039100
    14  H    0.192565
    15  N   -0.510335
    16  C    0.122613
    17  H    0.266505
    18  H    0.402246
    19  H    0.189416
    20  H    0.161253
    21  H    0.173931
    22  H    0.148936
    23  H    0.199158
    24  H    0.163980
    25  H    0.186539
    26  H    0.150442
    27  H    0.231899
 Sum of Mulliken charges =  -0.00000

 Dipole moment (field-independent basis, Debye):
    X=              4.8614    Y=              4.7813    Z=              1.2241  Tot=              6.9277
 Quadrupole moment (field-independent basis, Debye-Ang):
   XX=           -103.1345   YY=            -77.4087   ZZ=            -84.3089
   XY=             -2.5542   XZ=             -1.6784   YZ=              4.5168

 Normal termination of Gaussian 16 at Fri Jun 30 13:45:23 2023.
