 Gaussian 16, Revision C.02,
 Gaussian 16:  ES64L-G16RevC.02  7-Dec-2021

 ---------------------------------------------------------
 #MP2/6-31G* SCF=Tight Opt=(ModRedun, MaxCycle=20 ) NoSymm
 ---------------------------------------------------------

 --------
 MolName:
 --------
 Symbolic Z-matrix:
 Charge =  0 Multiplicity = 1

 SCF Done:  E(RHF) =  -661.270714836     A.U. after   17 cycles
 E2 =    -0.2039559351D+01 EUMP2 =    -0.66331027418730D+03
 SCF Done:  E(RHF) =  -661.282351914     A.U. after   15 cycles
 E2 =    -0.2038103165D+01 EUMP2 =    -0.66332045507875D+03
 SCF Done:  E(RHF) =  -661.275312854     A.U. after   18 cycles
 E2 =    -0.2039912298D+01 EUMP2 =    -0.66331522515159D+03
 SCF Done:  E(RHF) =  -661.282777786     A.U. after   15 cycles
 E2 =    -0.2040430397D+01 EUMP2 =    -0.66332320818295D+03
 SCF Done:  E(RHF) =  -661.283318507     A.U. after   14 cycles
 E2 =    -0.2040375550D+01 EUMP2 =    -0.66332369405663D+03
 SCF Done:  E(RHF) =  -661.283947139     A.U. after   13 cycles
 E2 =    -0.2039918211D+01 EUMP2 =    -0.66332386535052D+03
 SCF Done:  E(RHF) =  -661.284009566     A.U. after   12 cycles
 E2 =    -0.2039907800D+01 EUMP2 =    -0.66332391736589D+03
 SCF Done:  E(RHF) =  -661.283922012     A.U. after   12 cycles
 E2 =    -0.2040015206D+01 EUMP2 =    -0.66332393721753D+03
 SCF Done:  E(RHF) =  -661.283852386     A.U. after   11 cycles
 E2 =    -0.2040087628D+01 EUMP2 =    -0.66332394001396D+03
 SCF Done:  E(RHF) =  -661.283827674     A.U. after    9 cycles
 E2 =    -0.2040112561D+01 EUMP2 =    -0.66332394023445D+03
 Optimization completed.
    -- Stationary point found.

                          Input orientation:
 ---------------------------------------------------------------------
 Center     Atomic      Atomic             Coordinates (Angstroms)
 Number     Number       Type             X           Y           Z
 ---------------------------------------------------------------------
      1          8           0       -3.642819    0.367804   -1.124394
      2          7           0       -3.101550   -0.225788   -0.169941
      3          8           0       -3.667261   -1.072990    0.550223
      4          6           0       -1.677874   -0.025951    0.067085
      5          6           0       -1.301000    1.281985    0.193362
      6          7           0       -0.055400    1.783052    0.304707
      7          6           0        1.201939    1.050250    0.314375
      8          1           0        1.864017    1.625834    0.978573
      9          6           0        1.883131    0.957261   -1.050483
     10          6           0        3.285076    0.364539   -0.867911
     11          6           0        3.251135   -0.980181   -0.137102
     12          6           0        2.481251   -0.890801    1.181930
     13          6           0        1.064878   -0.361790    0.927327
     14          1           0        0.501842   -0.272652    1.869729
     15          7           0        0.406787   -1.331918    0.057133
     16          6           0       -0.847086   -1.172262   -0.220209
     17          1           0       -2.090290    2.030644    0.214983
     18          1           0        0.004900    2.780051    0.469441
     19          1           0        1.276050    0.327852   -1.710292
     20          1           0        1.940284    1.953557   -1.506137
     21          1           0        3.771187    0.253346   -1.843989
     22          1           0        3.895764    1.076646   -0.294709
     23          1           0        2.761538   -1.727922   -0.768865
     24          1           0        4.274028   -1.329335    0.047734
     25          1           0        2.407721   -1.879502    1.646739
     26          1           0        3.002138   -0.232467    1.890726
     27          1           0       -1.333385   -1.985281   -0.767026
 ---------------------------------------------------------------------

 Alpha  occ. eigenvalues --  -20.60373 -20.60317 -15.84715 -15.63158 -15.56204
 Alpha  occ. eigenvalues --  -11.34660 -11.30202 -11.29275 -11.28473 -11.26996
 Alpha  occ. eigenvalues --  -11.23397 -11.22987 -11.22546 -11.21936  -1.57557
 Alpha  occ. eigenvalues --   -1.37308  -1.30268  -1.23122  -1.14675  -1.09786
 Alpha  occ. eigenvalues --   -1.02554  -1.01046  -0.94489  -0.89725  -0.85303
 Alpha  occ. eigenvalues --   -0.82593  -0.78343  -0.77846  -0.74963  -0.72010
 Alpha  occ. eigenvalues --   -0.70834  -0.68626  -0.66923  -0.65232  -0.63406
 Alpha  occ. eigenvalues --   -0.62318  -0.60212  -0.57466  -0.56816  -0.54998
 Alpha  occ. eigenvalues --   -0.54459  -0.51134  -0.50317  -0.48861  -0.48196
 Alpha  occ. eigenvalues --   -0.47843  -0.46204  -0.45893  -0.43665  -0.41509
 Alpha  occ. eigenvalues --   -0.40081  -0.33196
 Alpha virt. eigenvalues --    0.08511   0.10453   0.17454   0.21465   0.23532
 Alpha virt. eigenvalues --    0.24806   0.26261   0.28126   0.29162   0.29269
 Alpha virt. eigenvalues --    0.29497   0.31655   0.32104   0.32862   0.33991

 Mulliken charges:
               1
     1  O   -0.454338
     2  N    0.434299
     3  O   -0.438642
     4  C    0.045795
     5  C    0.189307
     6  N   -0.789113
     7  C    0.059471
     8  H    0.177958
     9  C   -0.300085
    10  C   -0.327432
    11  C   -0.321158
    12  C   -0.306697
    13  C   -0.040184
    14  H    0.193184
    15  N   -0.509357
    16  C    0.124622
    17  H    0.259940
    18  H    0.401066
    19  H    0.189155
    20  H    0.161108
    21  H    0.173635
    22  H    0.148744
    23  H    0.198805
    24  H    0.163756
    25  H    0.186119
    26  H    0.150555
    27  H    0.229485
 Sum of Mulliken charges =  -0.00000

 Dipole moment (field-independent basis, Debye):
    X=              4.6966    Y=              4.7011    Z=              1.2240  Tot=              6.7570
 Quadrupole moment (field-independent basis, Debye-Ang):
   XX=           -102.5236   YY=            -76.7816   ZZ=            -85.1037
   XY=             -2.6849   XZ=             -1.4224   YZ=              4.5802

 Normal termination of Gaussian 16 at Fri Jun 30 13:22:09 2023.
