 Gaussian 16, Revision C.02,
 Gaussian 16:  ES64L-G16RevC.02  7-Dec-2021

 ---------------------------------------------------------
 #MP2/6-31G* SCF=Tight Opt=(ModRedun, MaxCycle=20 ) NoSymm
 ---------------------------------------------------------

 --------
 MolName:
 --------
 Symbolic Z-matrix:
 Charge =  0 Multiplicity = 1

 SCF Done:  E(RHF) =  -661.268317666     A.U. after   16 cycles
 E2 =    -0.2040109689D+01 EUMP2 =    -0.66330842735507D+03
 SCF Done:  E(RHF) =  -661.279469993     A.U. after   15 cycles
 E2 =    -0.2038885241D+01 EUMP2 =    -0.66331835523381D+03
 SCF Done:  E(RHF) =  -661.273707509     A.U. after   18 cycles
 E2 =    -0.2040916270D+01 EUMP2 =    -0.66331462377930D+03
 SCF Done:  E(RHF) =  -661.279287035     A.U. after   15 cycles
 E2 =    -0.2041433188D+01 EUMP2 =    -0.66332072022304D+03
 SCF Done:  E(RHF) =  -661.279765123     A.U. after   14 cycles
 E2 =    -0.2041429386D+01 EUMP2 =    -0.66332119450931D+03
 SCF Done:  E(RHF) =  -661.280401986     A.U. after   14 cycles
 E2 =    -0.2040984721D+01 EUMP2 =    -0.66332138670693D+03
 SCF Done:  E(RHF) =  -661.280448542     A.U. after   12 cycles
 E2 =    -0.2040987545D+01 EUMP2 =    -0.66332143608658D+03
 SCF Done:  E(RHF) =  -661.280379556     A.U. after   13 cycles
 E2 =    -0.2041087054D+01 EUMP2 =    -0.66332146660980D+03
 SCF Done:  E(RHF) =  -661.280328864     A.U. after   11 cycles
 E2 =    -0.2041141784D+01 EUMP2 =    -0.66332147064799D+03
 SCF Done:  E(RHF) =  -661.280289050     A.U. after   10 cycles
 E2 =    -0.2041182194D+01 EUMP2 =    -0.66332147124390D+03
 Optimization completed.
    -- Stationary point found.

                          Input orientation:
 ---------------------------------------------------------------------
 Center     Atomic      Atomic             Coordinates (Angstroms)
 Number     Number       Type             X           Y           Z
 ---------------------------------------------------------------------
      1          8           0       -3.618552    0.201636   -1.212862
      2          7           0       -3.105717   -0.231400   -0.161742
      3          8           0       -3.705084   -0.914430    0.692369
      4          6           0       -1.675595   -0.024848    0.052014
      5          6           0       -1.302773    1.280087    0.201237
      6          7           0       -0.054906    1.784091    0.301812
      7          6           0        1.201900    1.050532    0.312850
      8          1           0        1.862184    1.621489    0.982911
      9          6           0        1.889510    0.964226   -1.049260
     10          6           0        3.290105    0.369144   -0.864004
     11          6           0        3.251949   -0.979640   -0.140916
     12          6           0        2.476575   -0.896962    1.175311
     13          6           0        1.061662   -0.365636    0.917179
     14          1           0        0.493773   -0.281300    1.857163
     15          7           0        0.407190   -1.330256    0.038678
     16          6           0       -0.845857   -1.168110   -0.243014
     17          1           0       -2.091778    2.028430    0.246235
     18          1           0        0.003287    2.775851    0.494958
     19          1           0        1.284922    0.339277   -1.715588
     20          1           0        1.949322    1.963080   -1.498802
     21          1           0        3.780545    0.262973   -1.838486
     22          1           0        3.898958    1.077367   -0.284048
     23          1           0        2.764407   -1.723393   -0.778958
     24          1           0        4.273746   -1.330817    0.046255
     25          1           0        2.400791   -1.888035    1.634717
     26          1           0        2.994691   -0.242536    1.889706
     27          1           0       -1.328247   -1.975840   -0.801692
 ---------------------------------------------------------------------

 Alpha  occ. eigenvalues --  -20.60668 -20.60622 -15.84829 -15.62846 -15.56283
 Alpha  occ. eigenvalues --  -11.34500 -11.30260 -11.29171 -11.28511 -11.26954
 Alpha  occ. eigenvalues --  -11.23286 -11.22920 -11.22511 -11.21896  -1.57748
 Alpha  occ. eigenvalues --   -1.37515  -1.30030  -1.23114  -1.14632  -1.09733
 Alpha  occ. eigenvalues --   -1.02480  -1.00964  -0.94485  -0.89763  -0.85214
 Alpha  occ. eigenvalues --   -0.82591  -0.78308  -0.77899  -0.74877  -0.71981
 Alpha  occ. eigenvalues --   -0.71059  -0.68580  -0.66878  -0.65266  -0.63332
 Alpha  occ. eigenvalues --   -0.62210  -0.60195  -0.57383  -0.56774  -0.54943
 Alpha  occ. eigenvalues --   -0.54375  -0.51293  -0.50265  -0.48941  -0.48278
 Alpha  occ. eigenvalues --   -0.47871  -0.46167  -0.45852  -0.43743  -0.41452
 Alpha  occ. eigenvalues --   -0.40086  -0.33094
 Alpha virt. eigenvalues --    0.08838   0.09988   0.17504   0.21385   0.23488
 Alpha virt. eigenvalues --    0.24719   0.26212   0.28129   0.29070   0.29266
 Alpha virt. eigenvalues --    0.29551   0.31703   0.32135   0.32900   0.34059

 Mulliken charges:
               1
     1  O   -0.447576
     2  N    0.433078
     3  O   -0.435112
     4  C    0.050936
     5  C    0.185027
     6  N   -0.791135
     7  C    0.060805
     8  H    0.177057
     9  C   -0.299601
    10  C   -0.327429
    11  C   -0.321085
    12  C   -0.306599
    13  C   -0.041464
    14  H    0.193527
    15  N   -0.508007
    16  C    0.125150
    17  H    0.254956
    18  H    0.399639
    19  H    0.188796
    20  H    0.161244
    21  H    0.173315
    22  H    0.148525
    23  H    0.198420
    24  H    0.163536
    25  H    0.185632
    26  H    0.150631
    27  H    0.227734
 Sum of Mulliken charges =  -0.00000

 Dipole moment (field-independent basis, Debye):
    X=              4.5354    Y=              4.5910    Z=              1.2149  Tot=              6.5668
 Quadrupole moment (field-independent basis, Debye-Ang):
   XX=           -102.0586   YY=            -76.1336   ZZ=            -85.8636
   XY=             -2.7000   XZ=             -0.9906   YZ=              4.4632

 Normal termination of Gaussian 16 at Fri Jun 30 12:57:51 2023.
