 Gaussian 16, Revision C.02,
 Gaussian 16:  ES64L-G16RevC.02  7-Dec-2021

 ---------------------------------------------------------
 #MP2/6-31G* SCF=Tight Opt=(ModRedun, MaxCycle=20 ) NoSymm
 ---------------------------------------------------------

 --------
 MolName:
 --------
 Symbolic Z-matrix:
 Charge =  0 Multiplicity = 1

 SCF Done:  E(RHF) =  -661.266204660     A.U. after   17 cycles
 E2 =    -0.2040472532D+01 EUMP2 =    -0.66330667719153D+03
 SCF Done:  E(RHF) =  -661.277144814     A.U. after   17 cycles
 E2 =    -0.2039571509D+01 EUMP2 =    -0.66331671632312D+03
 SCF Done:  E(RHF) =  -661.273077662     A.U. after   18 cycles
 E2 =    -0.2041142914D+01 EUMP2 =    -0.66331422057670D+03
 SCF Done:  E(RHF) =  -661.277187442     A.U. after   15 cycles
 E2 =    -0.2042060402D+01 EUMP2 =    -0.66331924784358D+03
 SCF Done:  E(RHF) =  -661.277765345     A.U. after   14 cycles
 E2 =    -0.2042001030D+01 EUMP2 =    -0.66331976637461D+03
 SCF Done:  E(RHF) =  -661.278439396     A.U. after   14 cycles
 E2 =    -0.2041615619D+01 EUMP2 =    -0.66332005501498D+03
 SCF Done:  E(RHF) =  -661.278453410     A.U. after   12 cycles
 E2 =    -0.2041651745D+01 EUMP2 =    -0.66332010515573D+03
 SCF Done:  E(RHF) =  -661.278360473     A.U. after   13 cycles
 E2 =    -0.2041790845D+01 EUMP2 =    -0.66332015131812D+03
 SCF Done:  E(RHF) =  -661.278325000     A.U. after   12 cycles
 E2 =    -0.2041835621D+01 EUMP2 =    -0.66332016062126D+03
 SCF Done:  E(RHF) =  -661.278291293     A.U. after   12 cycles
 E2 =    -0.2041871924D+01 EUMP2 =    -0.66332016321715D+03
 SCF Done:  E(RHF) =  -661.278287300     A.U. after    9 cycles
 E2 =    -0.2041876022D+01 EUMP2 =    -0.66332016332142D+03
 Optimization completed.
    -- Stationary point found.

                          Input orientation:
 ---------------------------------------------------------------------
 Center     Atomic      Atomic             Coordinates (Angstroms)
 Number     Number       Type             X           Y           Z
 ---------------------------------------------------------------------
      1          8           0       -3.619409   -0.018055   -1.261039
      2          7           0       -3.109662   -0.243793   -0.145974
      3          8           0       -3.724024   -0.693751    0.840891
      4          6           0       -1.671656   -0.021111    0.007486
      5          6           0       -1.305066    1.276490    0.210207
      6          7           0       -0.054946    1.786324    0.286303
      7          6           0        1.201936    1.051720    0.304843
      8          1           0        1.857252    1.618069    0.983751
      9          6           0        1.902229    0.971871   -1.051003
     10          6           0        3.300116    0.373543   -0.855991
     11          6           0        3.253500   -0.979237   -0.140846
     12          6           0        2.466108   -0.902923    1.168619
     13          6           0        1.054378   -0.368417    0.899504
     14          1           0        0.476490   -0.288309    1.833825
     15          7           0        0.407860   -1.327668    0.009946
     16          6           0       -0.842849   -1.163746   -0.283433
     17          1           0       -2.095141    2.019546    0.303483
     18          1           0       -0.001054    2.766746    0.531067
     19          1           0        1.303120    0.351576   -1.726613
     20          1           0        1.967216    1.973197   -1.494063
     21          1           0        3.799607    0.272018   -1.826383
     22          1           0        3.904647    1.077567   -0.266411
     23          1           0        2.770777   -1.718743   -0.787498
     24          1           0        4.273037   -1.333059    0.053698
     25          1           0        2.385187   -1.896363    1.622032
     26          1           0        2.978268   -0.252777    1.891187
     27          1           0       -1.318910   -1.966697   -0.854599
 ---------------------------------------------------------------------

 Alpha  occ. eigenvalues --  -20.60884 -20.60870 -15.84973 -15.62576 -15.56377
 Alpha  occ. eigenvalues --  -11.34363 -11.30265 -11.29089 -11.28603 -11.26928
 Alpha  occ. eigenvalues --  -11.23184 -11.22862 -11.22487 -11.21867  -1.57935
 Alpha  occ. eigenvalues --   -1.37721  -1.29820  -1.23106  -1.14600  -1.09693
 Alpha  occ. eigenvalues --   -1.02424  -1.00895  -0.94511  -0.89813  -0.85119
 Alpha  occ. eigenvalues --   -0.82595  -0.78306  -0.77912  -0.74819  -0.71923
 Alpha  occ. eigenvalues --   -0.71254  -0.68569  -0.66931  -0.65268  -0.63292
 Alpha  occ. eigenvalues --   -0.62080  -0.60204  -0.57320  -0.56737  -0.54894
 Alpha  occ. eigenvalues --   -0.54274  -0.51397  -0.50219  -0.49068  -0.48360
 Alpha  occ. eigenvalues --   -0.47893  -0.46130  -0.45806  -0.43838  -0.41458
 Alpha  occ. eigenvalues --   -0.40034  -0.33052
 Alpha virt. eigenvalues --    0.08947   0.09774   0.17544   0.21310   0.23499
 Alpha virt. eigenvalues --    0.24696   0.26284   0.28153   0.29022   0.29316
 Alpha virt. eigenvalues --    0.29611   0.31760   0.32143   0.32926   0.34147

 Mulliken charges:
               1
     1  O   -0.442957
     2  N    0.436312
     3  O   -0.435947
     4  C    0.055637
     5  C    0.179531
     6  N   -0.790786
     7  C    0.061503
     8  H    0.176191
     9  C   -0.298920
    10  C   -0.327534
    11  C   -0.321116
    12  C   -0.306460
    13  C   -0.042972
    14  H    0.193341
    15  N   -0.506159
    16  C    0.122878
    17  H    0.252853
    18  H    0.397952
    19  H    0.188373
    20  H    0.161952
    21  H    0.173072
    22  H    0.148318
    23  H    0.198109
    24  H    0.163384
    25  H    0.185192
    26  H    0.150614
    27  H    0.227637
 Sum of Mulliken charges =  -0.00000

 Dipole moment (field-independent basis, Debye):
    X=              4.4102    Y=              4.4527    Z=              1.2313  Tot=              6.3869
 Quadrupole moment (field-independent basis, Debye-Ang):
   XX=           -101.8127   YY=            -75.5995   ZZ=            -86.4740
   XY=             -2.5611   XZ=             -0.4944   YZ=              4.1030

 Normal termination of Gaussian 16 at Fri Jun 30 12:31:57 2023.
