 Gaussian 16, Revision C.02,
 Gaussian 16:  ES64L-G16RevC.02  7-Dec-2021

 ---------------------------------------------------------
 #MP2/6-31G* SCF=Tight Opt=(ModRedun, MaxCycle=20 ) NoSymm
 ---------------------------------------------------------

 --------
 MolName:
 --------
 Symbolic Z-matrix:
 Charge =  0 Multiplicity = 1

 SCF Done:  E(RHF) =  -661.266729329     A.U. after   17 cycles
 E2 =    -0.2040437940D+01 EUMP2 =    -0.66330716726906D+03
 SCF Done:  E(RHF) =  -661.277594898     A.U. after   17 cycles
 E2 =    -0.2039658474D+01 EUMP2 =    -0.66331725337259D+03
 SCF Done:  E(RHF) =  -661.273545575     A.U. after   18 cycles
 E2 =    -0.2040801029D+01 EUMP2 =    -0.66331434660431D+03
 SCF Done:  E(RHF) =  -661.277868584     A.U. after   15 cycles
 E2 =    -0.2041910429D+01 EUMP2 =    -0.66331977901299D+03
 SCF Done:  E(RHF) =  -661.278413571     A.U. after   14 cycles
 E2 =    -0.2041852867D+01 EUMP2 =    -0.66332026643827D+03
 SCF Done:  E(RHF) =  -661.279100753     A.U. after   14 cycles
 E2 =    -0.2041538372D+01 EUMP2 =    -0.66332063912438D+03
 SCF Done:  E(RHF) =  -661.279079954     A.U. after   13 cycles
 E2 =    -0.2041638383D+01 EUMP2 =    -0.66332071833737D+03
 SCF Done:  E(RHF) =  -661.278970312     A.U. after   13 cycles
 E2 =    -0.2041777881D+01 EUMP2 =    -0.66332074819376D+03
 SCF Done:  E(RHF) =  -661.278996421     A.U. after   12 cycles
 E2 =    -0.2041757370D+01 EUMP2 =    -0.66332075379138D+03
 SCF Done:  E(RHF) =  -661.278988012     A.U. after   11 cycles
 E2 =    -0.2041767310D+01 EUMP2 =    -0.66332075532229D+03
 SCF Done:  E(RHF) =  -661.278985141     A.U. after    9 cycles
 E2 =    -0.2041770308D+01 EUMP2 =    -0.66332075544954D+03
 Optimization completed.
    -- Stationary point found.

                          Input orientation:
 ---------------------------------------------------------------------
 Center     Atomic      Atomic             Coordinates (Angstroms)
 Number     Number       Type             X           Y           Z
 ---------------------------------------------------------------------
      1          8           0       -3.632248   -0.276058   -1.259150
      2          7           0       -3.109394   -0.256211   -0.127901
      3          8           0       -3.723806   -0.408515    0.945631
      4          6           0       -1.668400   -0.017403   -0.057786
      5          6           0       -1.306364    1.266829    0.221966
      6          7           0       -0.057488    1.786030    0.270788
      7          6           0        1.201758    1.052555    0.296885
      8          1           0        1.849739    1.614771    0.986186
      9          6           0        1.915897    0.981231   -1.051722
     10          6           0        3.310897    0.379876   -0.845307
     11          6           0        3.254803   -0.977615   -0.139701
     12          6           0        2.453148   -0.909389    1.161624
     13          6           0        1.045191   -0.371220    0.879816
     14          1           0        0.455995   -0.295928    1.807479
     15          7           0        0.408169   -1.325860   -0.020966
     16          6           0       -0.839323   -1.163223   -0.329777
     17          1           0       -2.099488    1.996286    0.376831
     18          1           0       -0.009104    2.754736    0.559995
     19          1           0        1.323561    0.365736   -1.737637
     20          1           0        1.986320    1.985300   -1.487462
     21          1           0        3.820848    0.284009   -1.810809
     22          1           0        3.909854    1.079215   -0.244584
     23          1           0        2.778133   -1.712144   -0.796523
     24          1           0        4.271682   -1.334238    0.063386
     25          1           0        2.366159   -1.905813    1.607231
     26          1           0        2.958039   -0.264690    1.894131
     27          1           0       -1.308568   -1.965267   -0.907616
 ---------------------------------------------------------------------

 Alpha  occ. eigenvalues --  -20.60930 -20.60843 -15.85054 -15.62541 -15.56425
 Alpha  occ. eigenvalues --  -11.34356 -11.30225 -11.29094 -11.28690 -11.26950
 Alpha  occ. eigenvalues --  -11.23173 -11.22862 -11.22496 -11.21877  -1.57995
 Alpha  occ. eigenvalues --   -1.37785  -1.29788  -1.23108  -1.14618  -1.09706
 Alpha  occ. eigenvalues --   -1.02430  -1.00896  -0.94543  -0.89843  -0.85088
 Alpha  occ. eigenvalues --   -0.82607  -0.78301  -0.77930  -0.74818  -0.71885
 Alpha  occ. eigenvalues --   -0.71268  -0.68599  -0.67089  -0.65217  -0.63314
 Alpha  occ. eigenvalues --   -0.62000  -0.60272  -0.57348  -0.56709  -0.54873
 Alpha  occ. eigenvalues --   -0.54223  -0.51360  -0.50216  -0.49189  -0.48367
 Alpha  occ. eigenvalues --   -0.47934  -0.46143  -0.45776  -0.43900  -0.41571
 Alpha  occ. eigenvalues --   -0.39927  -0.33102
 Alpha virt. eigenvalues --    0.08599   0.10159   0.17568   0.21166   0.23442
 Alpha virt. eigenvalues --    0.24686   0.26408   0.28198   0.29114   0.29349
 Alpha virt. eigenvalues --    0.29632   0.31776   0.32110   0.32910   0.34208

 Mulliken charges:
               1
     1  O   -0.440390
     2  N    0.442129
     3  O   -0.442254
     4  C    0.054750
     5  C    0.175082
     6  N   -0.785907
     7  C    0.060625
     8  H    0.176162
     9  C   -0.298727
    10  C   -0.327724
    11  C   -0.321341
    12  C   -0.306213
    13  C   -0.044267
    14  H    0.192832
    15  N   -0.504586
    16  C    0.118183
    17  H    0.254769
    18  H    0.397011
    19  H    0.188288
    20  H    0.162855
    21  H    0.173150
    22  H    0.148333
    23  H    0.198049
    24  H    0.163474
    25  H    0.185097
    26  H    0.150518
    27  H    0.230100
 Sum of Mulliken charges =  -0.00000

 Dipole moment (field-independent basis, Debye):
    X=              4.4172    Y=              4.3368    Z=              1.2635  Tot=              6.3179
 Quadrupole moment (field-independent basis, Debye-Ang):
   XX=           -101.9832   YY=            -75.3484   ZZ=            -86.7194
   XY=             -2.2610   XZ=             -0.1120   YZ=              3.3235

 Normal termination of Gaussian 16 at Fri Jun 30 12:05:12 2023.
