 Gaussian 16, Revision C.02,
 Gaussian 16:  ES64L-G16RevC.02  7-Dec-2021

 ---------------------------------------------------------
 #MP2/6-31G* SCF=Tight Opt=(ModRedun, MaxCycle=20 ) NoSymm
 ---------------------------------------------------------

 --------
 MolName:
 --------
 Symbolic Z-matrix:
 Charge =  0 Multiplicity = 1

 SCF Done:  E(RHF) =  -661.275336890     A.U. after   16 cycles
 E2 =    -0.2039381329D+01 EUMP2 =    -0.66331471821847D+03
 SCF Done:  E(RHF) =  -661.292352348     A.U. after   15 cycles
 E2 =    -0.2034794342D+01 EUMP2 =    -0.66332714669071D+03
 SCF Done:  E(RHF) =  -661.291505008     A.U. after   16 cycles
 E2 =    -0.2035456081D+01 EUMP2 =    -0.66332696108829D+03
 SCF Done:  E(RHF) =  -661.287300375     A.U. after   16 cycles
 E2 =    -0.2037232594D+01 EUMP2 =    -0.66332453296969D+03
 SCF Done:  E(RHF) =  -661.285440039     A.U. after   15 cycles
 E2 =    -0.2037607115D+01 EUMP2 =    -0.66332304715414D+03
 SCF Done:  E(RHF) =  -661.293026364     A.U. after   12 cycles
 E2 =    -0.2035418847D+01 EUMP2 =    -0.66332844521043D+03
 SCF Done:  E(RHF) =  -661.294510674     A.U. after   15 cycles
 E2 =    -0.2036281118D+01 EUMP2 =    -0.66333079179152D+03
 SCF Done:  E(RHF) =  -661.294903363     A.U. after   14 cycles
 E2 =    -0.2036338308D+01 EUMP2 =    -0.66333124167168D+03
 SCF Done:  E(RHF) =  -661.295449490     A.U. after   12 cycles
 E2 =    -0.2035922927D+01 EUMP2 =    -0.66333137241668D+03
 SCF Done:  E(RHF) =  -661.295423544     A.U. after   12 cycles
 E2 =    -0.2035979859D+01 EUMP2 =    -0.66333140340242D+03
 SCF Done:  E(RHF) =  -661.295371247     A.U. after   11 cycles
 E2 =    -0.2036035300D+01 EUMP2 =    -0.66333140654651D+03
 SCF Done:  E(RHF) =  -661.295349984     A.U. after    9 cycles
 E2 =    -0.2036056657D+01 EUMP2 =    -0.66333140664150D+03
 Optimization completed.
    -- Stationary point found.

                          Input orientation:
 ---------------------------------------------------------------------
 Center     Atomic      Atomic             Coordinates (Angstroms)
 Number     Number       Type             X           Y           Z
 ---------------------------------------------------------------------
      1          8           0       -3.496585   -1.393867   -0.403326
      2          7           0       -3.103059   -0.239789   -0.148179
      3          8           0       -3.871111    0.727069    0.018260
      4          6           0       -1.659779   -0.041890   -0.026292
      5          6           0       -1.291263    1.246867    0.281415
      6          7           0       -0.054774    1.749594    0.401647
      7          6           0        1.210776    1.031196    0.365774
      8          1           0        1.861449    1.562626    1.076755
      9          6           0        1.906357    1.038442   -0.993571
     10          6           0        3.302060    0.423766   -0.835050
     11          6           0        3.249807   -0.971858   -0.207386
     12          6           0        2.460888   -0.978652    1.103789
     13          6           0        1.053455   -0.417472    0.871658
     14          1           0        0.479157   -0.390980    1.811811
     15          7           0        0.400739   -1.302207   -0.085677
     16          6           0       -0.852712   -1.106968   -0.376197
     17          1           0       -2.094967    1.962795    0.426830
     18          1           0       -0.006950    2.731553    0.647561
     19          1           0        1.305373    0.461979   -1.704871
     20          1           0        1.975869    2.065425   -1.373282
     21          1           0        3.801075    0.382330   -1.809995
     22          1           0        3.908522    1.087338   -0.202215
     23          1           0        2.765057   -1.666308   -0.900521
     24          1           0        4.268231   -1.339943   -0.035261
     25          1           0        2.371804   -2.000269    1.487577
     26          1           0        2.977333   -0.383490    1.869701
     27          1           0       -1.305752   -1.874293   -1.004945
 ---------------------------------------------------------------------

 Alpha  occ. eigenvalues --  -20.59433 -20.59086 -15.84823 -15.64435 -15.55600
 Alpha  occ. eigenvalues --  -11.35246 -11.29554 -11.28775 -11.28345 -11.26909
 Alpha  occ. eigenvalues --  -11.23690 -11.23147 -11.22548 -11.21972  -1.57302
 Alpha  occ. eigenvalues --   -1.36910  -1.31288  -1.22916  -1.15094  -1.09746
 Alpha  occ. eigenvalues --   -1.02812  -1.01128  -0.94631  -0.90391  -0.85526
 Alpha  occ. eigenvalues --   -0.82755  -0.78929  -0.77381  -0.75292  -0.72449
 Alpha  occ. eigenvalues --   -0.69920  -0.69502  -0.67861  -0.64737  -0.63738
 Alpha  occ. eigenvalues --   -0.62387  -0.60443  -0.57719  -0.56881  -0.55099
 Alpha  occ. eigenvalues --   -0.54443  -0.50711  -0.50266  -0.48752  -0.48095
 Alpha  occ. eigenvalues --   -0.47447  -0.46154  -0.45954  -0.43808  -0.41768
 Alpha  occ. eigenvalues --   -0.39641  -0.33447
 Alpha virt. eigenvalues --    0.07379   0.11378   0.17225   0.21913   0.24179
 Alpha virt. eigenvalues --    0.25865   0.27250   0.28819   0.29112   0.29794
 Alpha virt. eigenvalues --    0.30710   0.31917   0.32095   0.32871   0.34035

 Mulliken charges:
               1
     1  O   -0.464361
     2  N    0.488651
     3  O   -0.503005
     4  C    0.029924
     5  C    0.190516
     6  N   -0.775328
     7  C    0.057850
     8  H    0.179826
     9  C   -0.300373
    10  C   -0.328049
    11  C   -0.321043
    12  C   -0.305582
    13  C   -0.038127
    14  H    0.186449
    15  N   -0.523278
    16  C    0.095720
    17  H    0.298566
    18  H    0.406216
    19  H    0.190777
    20  H    0.160999
    21  H    0.174455
    22  H    0.149002
    23  H    0.200682
    24  H    0.163770
    25  H    0.186609
    26  H    0.149020
    27  H    0.250111
 Sum of Mulliken charges =  -0.00000

 Dipole moment (field-independent basis, Debye):
    X=              5.2152    Y=              4.9282    Z=              1.3930  Tot=              7.3093
 Quadrupole moment (field-independent basis, Debye-Ang):
   XX=           -105.6286   YY=            -79.2914   ZZ=            -81.4581
   XY=             -1.7774   XZ=             -0.5121   YZ=              1.9529

 Normal termination of Gaussian 16 at Sat Jul  1 11:54:51 2023.
