 Gaussian 16, Revision C.02,
 Gaussian 16:  ES64L-G16RevC.02  7-Dec-2021

 ---------------------------------------------------------
 #MP2/6-31G* SCF=Tight Opt=(ModRedun, MaxCycle=20 ) NoSymm
 ---------------------------------------------------------

 --------
 MolName:
 --------
 Symbolic Z-matrix:
 Charge =  0 Multiplicity = 1

 SCF Done:  E(RHF) =  -661.279103266     A.U. after   16 cycles
 E2 =    -0.2038534522D+01 EUMP2 =    -0.66331763778790D+03
 SCF Done:  E(RHF) =  -661.296058647     A.U. after   15 cycles
 E2 =    -0.2033830513D+01 EUMP2 =    -0.66332988916008D+03
 SCF Done:  E(RHF) =  -661.295500493     A.U. after   15 cycles
 E2 =    -0.2034468036D+01 EUMP2 =    -0.66332996852883D+03
 SCF Done:  E(RHF) =  -661.290449347     A.U. after   17 cycles
 E2 =    -0.2036353806D+01 EUMP2 =    -0.66332680315326D+03
 SCF Done:  E(RHF) =  -661.296971706     A.U. after   15 cycles
 E2 =    -0.2036042482D+01 EUMP2 =    -0.66333301418818D+03
 SCF Done:  E(RHF) =  -661.298252576     A.U. after   14 cycles
 E2 =    -0.2035507312D+01 EUMP2 =    -0.66333375988843D+03
 SCF Done:  E(RHF) =  -661.298867155     A.U. after   12 cycles
 E2 =    -0.2034995154D+01 EUMP2 =    -0.66333386230943D+03
 SCF Done:  E(RHF) =  -661.298890406     A.U. after   12 cycles
 E2 =    -0.2034997148D+01 EUMP2 =    -0.66333388755320D+03
 SCF Done:  E(RHF) =  -661.298844533     A.U. after   11 cycles
 E2 =    -0.2035047689D+01 EUMP2 =    -0.66333389222205D+03
 SCF Done:  E(RHF) =  -661.298804698     A.U. after   10 cycles
 E2 =    -0.2035087829D+01 EUMP2 =    -0.66333389252748D+03
 Optimization completed.
    -- Stationary point found.

                          Input orientation:
 ---------------------------------------------------------------------
 Center     Atomic      Atomic             Coordinates (Angstroms)
 Number     Number       Type             X           Y           Z
 ---------------------------------------------------------------------
      1          8           0       -3.501430   -1.392644   -0.385918
      2          7           0       -3.111982   -0.236339   -0.132698
      3          8           0       -3.883325    0.727458    0.037695
      4          6           0       -1.673266   -0.032738   -0.018308
      5          6           0       -1.296284    1.253873    0.277838
      6          7           0       -0.055951    1.750081    0.393599
      7          6           0        1.208196    1.027668    0.362312
      8          1           0        1.857361    1.557810    1.075571
      9          6           0        1.907873    1.036767   -0.995205
     10          6           0        3.304894    0.426071   -0.833750
     11          6           0        3.254640   -0.969770   -0.206584
     12          6           0        2.462534   -0.978401    1.102652
     13          6           0        1.053990   -0.420876    0.868244
     14          1           0        0.478565   -0.396896    1.807521
     15          7           0        0.404345   -1.309969   -0.088572
     16          6           0       -0.845950   -1.122485   -0.381692
     17          1           0       -2.095587    1.975245    0.422387
     18          1           0       -0.002657    2.733677    0.631191
     19          1           0        1.310325    0.459827   -1.709026
     20          1           0        1.975688    2.064219   -1.373927
     21          1           0        3.806499    0.386245   -1.807428
     22          1           0        3.907970    1.091015   -0.199149
     23          1           0        2.773475   -1.665388   -0.901117
     24          1           0        4.273400   -1.335616   -0.031823
     25          1           0        2.375174   -2.000164    1.486472
     26          1           0        2.975715   -0.381928    1.869674
     27          1           0       -1.303202   -1.883740   -1.013947
 ---------------------------------------------------------------------

 Alpha  occ. eigenvalues --  -20.59331 -20.58991 -15.84772 -15.64278 -15.55868
 Alpha  occ. eigenvalues --  -11.35126 -11.29588 -11.29175 -11.28492 -11.27025
 Alpha  occ. eigenvalues --  -11.23710 -11.23178 -11.22622 -11.22033  -1.57208
 Alpha  occ. eigenvalues --   -1.36808  -1.31129  -1.22983  -1.14890  -1.09787
 Alpha  occ. eigenvalues --   -1.02807  -1.01222  -0.94547  -0.90026  -0.85546
 Alpha  occ. eigenvalues --   -0.82605  -0.78768  -0.77404  -0.75245  -0.72232
 Alpha  occ. eigenvalues --   -0.69843  -0.69471  -0.67844  -0.64814  -0.63760
 Alpha  occ. eigenvalues --   -0.62375  -0.60373  -0.57709  -0.56943  -0.55092
 Alpha  occ. eigenvalues --   -0.54514  -0.50730  -0.50190  -0.48703  -0.48098
 Alpha  occ. eigenvalues --   -0.47412  -0.46149  -0.46002  -0.43742  -0.41725
 Alpha  occ. eigenvalues --   -0.39754  -0.33653
 Alpha virt. eigenvalues --    0.07425   0.11594   0.17269   0.21880   0.24147
 Alpha virt. eigenvalues --    0.25771   0.27190   0.28761   0.29077   0.29705
 Alpha virt. eigenvalues --    0.30699   0.31858   0.32064   0.32817   0.33990

 Mulliken charges:
               1
     1  O   -0.465862
     2  N    0.490035
     3  O   -0.503576
     4  C    0.013573
     5  C    0.189711
     6  N   -0.777943
     7  C    0.059087
     8  H    0.179959
     9  C   -0.300917
    10  C   -0.327995
    11  C   -0.321281
    12  C   -0.306125
    13  C   -0.037696
    14  H    0.188283
    15  N   -0.517025
    16  C    0.109448
    17  H    0.296912
    18  H    0.405530
    19  H    0.190467
    20  H    0.161210
    21  H    0.174555
    22  H    0.149188
    23  H    0.200297
    24  H    0.164171
    25  H    0.186841
    26  H    0.149705
    27  H    0.249448
 Sum of Mulliken charges =  -0.00000

 Dipole moment (field-independent basis, Debye):
    X=              5.3186    Y=              4.8610    Z=              1.3353  Tot=              7.3280
 Quadrupole moment (field-independent basis, Debye-Ang):
   XX=           -105.8883   YY=            -79.2607   ZZ=            -81.4801
   XY=             -1.7759   XZ=             -0.3128   YZ=              1.9030

 Normal termination of Gaussian 16 at Sat Jul  1 11:28:57 2023.
