 Gaussian 16, Revision C.02,
 Gaussian 16:  ES64L-G16RevC.02  7-Dec-2021

 ---------------------------------------------------------
 #MP2/6-31G* SCF=Tight Opt=(ModRedun, MaxCycle=20 ) NoSymm
 ---------------------------------------------------------

 --------
 MolName:
 --------
 Symbolic Z-matrix:
 Charge =  0 Multiplicity = 1

 SCF Done:  E(RHF) =  -661.280892878     A.U. after   16 cycles
 E2 =    -0.2037849405D+01 EUMP2 =    -0.66331874228335D+03
 SCF Done:  E(RHF) =  -661.297818916     A.U. after   15 cycles
 E2 =    -0.2033038623D+01 EUMP2 =    -0.66333085753856D+03
 SCF Done:  E(RHF) =  -661.297697000     A.U. after   15 cycles
 E2 =    -0.2033630115D+01 EUMP2 =    -0.66333132711456D+03
 SCF Done:  E(RHF) =  -661.291460804     A.U. after   17 cycles
 E2 =    -0.2035676951D+01 EUMP2 =    -0.66332713775481D+03
 SCF Done:  E(RHF) =  -661.298814957     A.U. after   15 cycles
 E2 =    -0.2035165916D+01 EUMP2 =    -0.66333398087319D+03
 SCF Done:  E(RHF) =  -661.299884497     A.U. after   14 cycles
 E2 =    -0.2034652887D+01 EUMP2 =    -0.66333453738363D+03
 SCF Done:  E(RHF) =  -661.300418884     A.U. after   12 cycles
 E2 =    -0.2034204105D+01 EUMP2 =    -0.66333462298880D+03
 SCF Done:  E(RHF) =  -661.300440584     A.U. after   12 cycles
 E2 =    -0.2034204582D+01 EUMP2 =    -0.66333464516636D+03
 SCF Done:  E(RHF) =  -661.300397518     A.U. after   11 cycles
 E2 =    -0.2034251709D+01 EUMP2 =    -0.66333464922716D+03
 SCF Done:  E(RHF) =  -661.300366419     A.U. after    9 cycles
 E2 =    -0.2034282967D+01 EUMP2 =    -0.66333464938624D+03
 Optimization completed.
    -- Stationary point found.

                          Input orientation:
 ---------------------------------------------------------------------
 Center     Atomic      Atomic             Coordinates (Angstroms)
 Number     Number       Type             X           Y           Z
 ---------------------------------------------------------------------
      1          8           0       -3.506753   -1.390230   -0.371522
      2          7           0       -3.121103   -0.232174   -0.118687
      3          8           0       -3.895397    0.728767    0.055784
      4          6           0       -1.686659   -0.023687   -0.009888
      5          6           0       -1.301400    1.260677    0.275490
      6          7           0       -0.057154    1.750123    0.386778
      7          6           0        1.205635    1.023889    0.359581
      8          1           0        1.853381    1.552544    1.075194
      9          6           0        1.909190    1.035362   -0.996217
     10          6           0        3.307560    0.428633   -0.832291
     11          6           0        3.259498   -0.967649   -0.206117
     12          6           0        2.464446   -0.978612    1.101310
     13          6           0        1.054722   -0.424856    0.864938
     14          1           0        0.478147   -0.403792    1.803337
     15          7           0        0.408200   -1.317924   -0.091571
     16          6           0       -0.839127   -1.138034   -0.386955
     17          1           0       -2.096149    1.987569    0.419265
     18          1           0        0.001738    2.735211    0.616270
     19          1           0        1.314957    0.458132   -1.712592
     20          1           0        1.975206    2.063402   -1.373636
     21          1           0        3.811560    0.390799   -1.804811
     22          1           0        3.907338    1.094734   -0.195805
     23          1           0        2.781829   -1.664208   -0.902198
     24          1           0        4.278646   -1.331241   -0.029040
     25          1           0        2.378981   -2.000638    1.484880
     26          1           0        2.974380   -0.380978    1.869534
     27          1           0       -1.300693   -1.892838   -1.023051
 ---------------------------------------------------------------------

 Alpha  occ. eigenvalues --  -20.59237 -20.58904 -15.84722 -15.64136 -15.56112
 Alpha  occ. eigenvalues --  -11.35017 -11.29622 -11.29560 -11.28627 -11.27134
 Alpha  occ. eigenvalues --  -11.23728 -11.23208 -11.22692 -11.22089  -1.57117
 Alpha  occ. eigenvalues --   -1.36710  -1.30977  -1.23064  -1.14702  -1.09818
 Alpha  occ. eigenvalues --   -1.02805  -1.01308  -0.94481  -0.89683  -0.85566
 Alpha  occ. eigenvalues --   -0.82447  -0.78609  -0.77411  -0.75203  -0.72019
 Alpha  occ. eigenvalues --   -0.69771  -0.69439  -0.67820  -0.64892  -0.63777
 Alpha  occ. eigenvalues --   -0.62367  -0.60281  -0.57700  -0.57001  -0.55077
 Alpha  occ. eigenvalues --   -0.54582  -0.50761  -0.50108  -0.48656  -0.48102
 Alpha  occ. eigenvalues --   -0.47372  -0.46146  -0.46044  -0.43678  -0.41696
 Alpha  occ. eigenvalues --   -0.39846  -0.33829
 Alpha virt. eigenvalues --    0.07465   0.11800   0.17308   0.21848   0.24113
 Alpha virt. eigenvalues --    0.25665   0.27134   0.28694   0.29044   0.29635
 Alpha virt. eigenvalues --    0.30683   0.31797   0.32036   0.32767   0.33950

 Mulliken charges:
               1
     1  O   -0.467248
     2  N    0.491332
     3  O   -0.504064
     4  C    0.000424
     5  C    0.188866
     6  N   -0.780294
     7  C    0.060265
     8  H    0.180078
     9  C   -0.301433
    10  C   -0.327938
    11  C   -0.321490
    12  C   -0.306660
    13  C   -0.037172
    14  H    0.189961
    15  N   -0.511215
    16  C    0.120028
    17  H    0.295297
    18  H    0.404870
    19  H    0.190186
    20  H    0.161382
    21  H    0.174647
    22  H    0.149361
    23  H    0.199935
    24  H    0.164540
    25  H    0.187063
    26  H    0.150349
    27  H    0.248930
 Sum of Mulliken charges =  -0.00000

 Dipole moment (field-independent basis, Debye):
    X=              5.4157    Y=              4.7953    Z=              1.2826  Tot=              7.3464
 Quadrupole moment (field-independent basis, Debye-Ang):
   XX=           -106.1386   YY=            -79.2254   ZZ=            -81.5005
   XY=             -1.7650   XZ=             -0.1326   YZ=              1.8565

 Normal termination of Gaussian 16 at Sat Jul  1 10:22:01 2023.
