 Gaussian 16, Revision C.02,
 Gaussian 16:  ES64L-G16RevC.02  7-Dec-2021

 ---------------------------------------------------------
 #MP2/6-31G* SCF=Tight Opt=(ModRedun, MaxCycle=20 ) NoSymm
 ---------------------------------------------------------

 --------
 MolName:
 --------
 Symbolic Z-matrix:
 Charge =  0 Multiplicity = 1

 SCF Done:  E(RHF) =  -661.281018495     A.U. after   16 cycles
 E2 =    -0.2037320534D+01 EUMP2 =    -0.66331833902844D+03
 SCF Done:  E(RHF) =  -661.297940127     A.U. after   15 cycles
 E2 =    -0.2032414905D+01 EUMP2 =    -0.66333035503125D+03
 SCF Done:  E(RHF) =  -661.298406278     A.U. after   15 cycles
 E2 =    -0.2032937330D+01 EUMP2 =    -0.66333134360884D+03
 SCF Done:  E(RHF) =  -661.290497238     A.U. after   17 cycles
 E2 =    -0.2035233390D+01 EUMP2 =    -0.66332573062810D+03
 SCF Done:  E(RHF) =  -661.299099976     A.U. after   14 cycles
 E2 =    -0.2034426370D+01 EUMP2 =    -0.66333352634516D+03
 SCF Done:  E(RHF) =  -661.299914714     A.U. after   13 cycles
 E2 =    -0.2033969731D+01 EUMP2 =    -0.66333388444464D+03
 SCF Done:  E(RHF) =  -661.300375880     A.U. after   12 cycles
 E2 =    -0.2033578513D+01 EUMP2 =    -0.66333395439322D+03
 SCF Done:  E(RHF) =  -661.300408755     A.U. after   12 cycles
 E2 =    -0.2033564642D+01 EUMP2 =    -0.66333397339788D+03
 SCF Done:  E(RHF) =  -661.300361527     A.U. after   11 cycles
 E2 =    -0.2033614944D+01 EUMP2 =    -0.66333397647187D+03
 SCF Done:  E(RHF) =  -661.300331004     A.U. after    9 cycles
 E2 =    -0.2033645601D+01 EUMP2 =    -0.66333397660520D+03
 Optimization completed.
    -- Stationary point found.

                          Input orientation:
 ---------------------------------------------------------------------
 Center     Atomic      Atomic             Coordinates (Angstroms)
 Number     Number       Type             X           Y           Z
 ---------------------------------------------------------------------
      1          8           0       -3.512501   -1.385244   -0.365527
      2          7           0       -3.130350   -0.226056   -0.110821
      3          8           0       -3.907233    0.732339    0.067507
      4          6           0       -1.699924   -0.013780   -0.004609
      5          6           0       -1.306462    1.267894    0.272134
      6          7           0       -0.058233    1.749877    0.380813
      7          6           0        1.202973    1.019513    0.358352
      8          1           0        1.848621    1.545701    1.077637
      9          6           0        1.911923    1.034626   -0.994898
     10          6           0        3.311253    0.431254   -0.827598
     11          6           0        3.264299   -0.966130   -0.203997
     12          6           0        2.464875   -0.980623    1.100710
     13          6           0        1.054387   -0.430060    0.861288
     14          1           0        0.475501   -0.412753    1.798111
     15          7           0        0.411925   -1.325768   -0.096649
     16          6           0       -0.832145   -1.152662   -0.395475
     17          1           0       -2.096401    2.000521    0.415019
     18          1           0        0.006333    2.736005    0.603798
     19          1           0        1.321605    0.458031   -1.715038
     20          1           0        1.976855    2.063621   -1.369866
     21          1           0        3.818697    0.396339   -1.798433
     22          1           0        3.907222    1.097623   -0.187848
     23          1           0        2.790696   -1.662723   -0.902893
     24          1           0        4.283524   -1.327950   -0.023882
     25          1           0        2.380622   -2.003287    1.482862
     26          1           0        2.970838   -0.382772    1.871327
     27          1           0       -1.297878   -1.900547   -1.036013
 ---------------------------------------------------------------------

 Alpha  occ. eigenvalues --  -20.59148 -20.58824 -15.84672 -15.64005 -15.56335
 Alpha  occ. eigenvalues --  -11.34916 -11.29929 -11.29654 -11.28751 -11.27240
 Alpha  occ. eigenvalues --  -11.23745 -11.23235 -11.22758 -11.22142  -1.57028
 Alpha  occ. eigenvalues --   -1.36617  -1.30832  -1.23156  -1.14531  -1.09840
 Alpha  occ. eigenvalues --   -1.02804  -1.01387  -0.94430  -0.89369  -0.85584
 Alpha  occ. eigenvalues --   -0.82287  -0.78452  -0.77401  -0.75164  -0.71814
 Alpha  occ. eigenvalues --   -0.69703  -0.69404  -0.67788  -0.64971  -0.63790
 Alpha  occ. eigenvalues --   -0.62366  -0.60170  -0.57692  -0.57054  -0.55054
 Alpha  occ. eigenvalues --   -0.54647  -0.50796  -0.50030  -0.48612  -0.48107
 Alpha  occ. eigenvalues --   -0.47328  -0.46146  -0.46081  -0.43616  -0.41683
 Alpha  occ. eigenvalues --   -0.39917  -0.33976
 Alpha virt. eigenvalues --    0.07500   0.11995   0.17341   0.21817   0.24080
 Alpha virt. eigenvalues --    0.25551   0.27082   0.28622   0.29009   0.29577
 Alpha virt. eigenvalues --    0.30662   0.31733   0.32013   0.32718   0.33913

 Mulliken charges:
               1
     1  O   -0.468525
     2  N    0.492516
     3  O   -0.504465
     4  C   -0.010009
     5  C    0.187980
     6  N   -0.782395
     7  C    0.061377
     8  H    0.180176
     9  C   -0.301916
    10  C   -0.327880
    11  C   -0.321675
    12  C   -0.307190
    13  C   -0.036550
    14  H    0.191507
    15  N   -0.505799
    16  C    0.127902
    17  H    0.293699
    18  H    0.404233
    19  H    0.189925
    20  H    0.161531
    21  H    0.174731
    22  H    0.149522
    23  H    0.199590
    24  H    0.164881
    25  H    0.187278
    26  H    0.150960
    27  H    0.248594
 Sum of Mulliken charges =  -0.00000

 Dipole moment (field-independent basis, Debye):
    X=              5.5072    Y=              4.7276    Z=              1.2447  Tot=              7.3640
 Quadrupole moment (field-independent basis, Debye-Ang):
   XX=           -106.3821   YY=            -79.1843   ZZ=            -81.5184
   XY=             -1.7379   XZ=             -0.0023   YZ=              1.8106

 Normal termination of Gaussian 16 at Sat Jul  1 10:43:51 2023.
