 Gaussian 16, Revision C.02,
 Gaussian 16:  ES64L-G16RevC.02  7-Dec-2021

 ---------------------------------------------------------
 #MP2/6-31G* SCF=Tight Opt=(ModRedun, MaxCycle=20 ) NoSymm
 ---------------------------------------------------------

 --------
 MolName:
 --------
 Symbolic Z-matrix:
 Charge =  0 Multiplicity = 1

 SCF Done:  E(RHF) =  -661.279744775     A.U. after   16 cycles
 E2 =    -0.2036941080D+01 EUMP2 =    -0.66331668585528D+03
 SCF Done:  E(RHF) =  -661.296682282     A.U. after   15 cycles
 E2 =    -0.2031955759D+01 EUMP2 =    -0.66332863804060D+03
 SCF Done:  E(RHF) =  -661.297783432     A.U. after   15 cycles
 E2 =    -0.2032397785D+01 EUMP2 =    -0.66333018121671D+03
 SCF Done:  E(RHF) =  -661.287727599     A.U. after   17 cycles
 E2 =    -0.2035050639D+01 EUMP2 =    -0.66332277823791D+03
 SCF Done:  E(RHF) =  -661.297985614     A.U. after   14 cycles
 E2 =    -0.2033848251D+01 EUMP2 =    -0.66333183386425D+03
 SCF Done:  E(RHF) =  -661.298572719     A.U. after   13 cycles
 E2 =    -0.2033473503D+01 EUMP2 =    -0.66333204622188D+03
 SCF Done:  E(RHF) =  -661.299009851     A.U. after   12 cycles
 E2 =    -0.2033099400D+01 EUMP2 =    -0.66333210925096D+03
 SCF Done:  E(RHF) =  -661.299064420     A.U. after   11 cycles
 E2 =    -0.2033060655D+01 EUMP2 =    -0.66333212507505D+03
 SCF Done:  E(RHF) =  -661.299003248     A.U. after   11 cycles
 E2 =    -0.2033124993D+01 EUMP2 =    -0.66333212824084D+03
 SCF Done:  E(RHF) =  -661.298962708     A.U. after   10 cycles
 E2 =    -0.2033166082D+01 EUMP2 =    -0.66333212879019D+03
 Optimization completed.
    -- Stationary point found.

                          Input orientation:
 ---------------------------------------------------------------------
 Center     Atomic      Atomic             Coordinates (Angstroms)
 Number     Number       Type             X           Y           Z
 ---------------------------------------------------------------------
      1          8           0       -3.518610   -1.379964   -0.359881
      2          7           0       -3.139629   -0.219829   -0.103251
      3          8           0       -3.918935    0.736211    0.078418
      4          6           0       -1.712872   -0.004050    0.000978
      5          6           0       -1.311415    1.274980    0.269144
      6          7           0       -0.059211    1.749493    0.375001
      7          6           0        1.200462    1.015161    0.357148
      8          1           0        1.844055    1.539082    1.079867
      9          6           0        1.914439    1.033799   -0.993702
     10          6           0        3.314791    0.433906   -0.823241
     11          6           0        3.269231   -0.964504   -0.202006
     12          6           0        2.465771   -0.982425    1.100150
     13          6           0        1.054446   -0.435301    0.857801
     14          1           0        0.473300   -0.421662    1.793065
     15          7           0        0.416124   -1.333747   -0.101314
     16          6           0       -0.824840   -1.167509   -0.403417
     17          1           0       -2.096448    2.013339    0.411265
     18          1           0        0.010947    2.736509    0.591925
     19          1           0        1.327926    0.457655   -1.717318
     20          1           0        1.978104    2.063673   -1.366419
     21          1           0        3.825416    0.401833   -1.792492
     22          1           0        3.907043    1.100664   -0.180501
     23          1           0        2.799576   -1.661252   -0.903468
     24          1           0        4.288592   -1.324436   -0.019073
     25          1           0        2.382955   -2.005647    1.481104
     26          1           0        2.967787   -0.384144    1.872935
     27          1           0       -1.294987   -1.908812   -1.047726
 ---------------------------------------------------------------------

 Alpha  occ. eigenvalues --  -20.59064 -20.58748 -15.84623 -15.63883 -15.56542
 Alpha  occ. eigenvalues --  -11.34821 -11.30284 -11.29685 -11.28864 -11.27342
 Alpha  occ. eigenvalues --  -11.23761 -11.23261 -11.22819 -11.22191  -1.56943
 Alpha  occ. eigenvalues --   -1.36527  -1.30693  -1.23257  -1.14377  -1.09853
 Alpha  occ. eigenvalues --   -1.02806  -1.01461  -0.94390  -0.89088  -0.85602
 Alpha  occ. eigenvalues --   -0.82130  -0.78301  -0.77372  -0.75129  -0.71620
 Alpha  occ. eigenvalues --   -0.69639  -0.69365  -0.67751  -0.65048  -0.63800
 Alpha  occ. eigenvalues --   -0.62371  -0.60041  -0.57685  -0.57103  -0.55026
 Alpha  occ. eigenvalues --   -0.54709  -0.50829  -0.49957  -0.48571  -0.48111
 Alpha  occ. eigenvalues --   -0.47278  -0.46152  -0.46110  -0.43556  -0.41685
 Alpha  occ. eigenvalues --   -0.39967  -0.34095
 Alpha virt. eigenvalues --    0.07532   0.12177   0.17371   0.21786   0.24045
 Alpha virt. eigenvalues --    0.25433   0.27033   0.28546   0.28972   0.29526
 Alpha virt. eigenvalues --    0.30636   0.31665   0.31994   0.32672   0.33879

 Mulliken charges:
               1
     1  O   -0.469677
     2  N    0.493573
     3  O   -0.504778
     4  C   -0.018195
     5  C    0.187056
     6  N   -0.784290
     7  C    0.062426
     8  H    0.180265
     9  C   -0.302364
    10  C   -0.327829
    11  C   -0.321846
    12  C   -0.307712
    13  C   -0.035842
    14  H    0.192942
    15  N   -0.500730
    16  C    0.133545
    17  H    0.292113
    18  H    0.403615
    19  H    0.189682
    20  H    0.161668
    21  H    0.174806
    22  H    0.149676
    23  H    0.199265
    24  H    0.165202
    25  H    0.187488
    26  H    0.151540
    27  H    0.248402
 Sum of Mulliken charges =  -0.00000

 Dipole moment (field-independent basis, Debye):
    X=              5.5941    Y=              4.6608    Z=              1.2080  Tot=              7.3808
 Quadrupole moment (field-independent basis, Debye-Ang):
   XX=           -106.6198   YY=            -79.1384   ZZ=            -81.5328
   XY=             -1.7046   XZ=              0.1205   YZ=              1.7724

 Normal termination of Gaussian 16 at Sat Jul  1 11:05:38 2023.
