 Gaussian 16, Revision C.02,
 Gaussian 16:  ES64L-G16RevC.02  7-Dec-2021

 ---------------------------------------------------------
 #MP2/6-31G* SCF=Tight Opt=(ModRedun, MaxCycle=20 ) NoSymm
 ---------------------------------------------------------

 --------
 MolName:
 --------
 Symbolic Z-matrix:
 Charge =  0 Multiplicity = 1

 SCF Done:  E(RHF) =  -661.276492753     A.U. after   16 cycles
 E2 =    -0.2039152390D+01 EUMP2 =    -0.66331564514279D+03
 SCF Done:  E(RHF) =  -661.293489000     A.U. after   15 cycles
 E2 =    -0.2034535241D+01 EUMP2 =    -0.66332802424086D+03
 SCF Done:  E(RHF) =  -661.292694266     A.U. after   16 cycles
 E2 =    -0.2035193588D+01 EUMP2 =    -0.66332788785461D+03
 SCF Done:  E(RHF) =  -661.288313832     A.U. after   16 cycles
 E2 =    -0.2036992673D+01 EUMP2 =    -0.66332530650492D+03
 SCF Done:  E(RHF) =  -661.286513257     A.U. after   15 cycles
 E2 =    -0.2037354414D+01 EUMP2 =    -0.66332386767037D+03
 SCF Done:  E(RHF) =  -661.294157389     A.U. after   12 cycles
 E2 =    -0.2035155195D+01 EUMP2 =    -0.66332931258463D+03
 SCF Done:  E(RHF) =  -661.295595151     A.U. after   15 cycles
 E2 =    -0.2036023279D+01 EUMP2 =    -0.66333161842962D+03
 SCF Done:  E(RHF) =  -661.295978645     A.U. after   14 cycles
 E2 =    -0.2036076607D+01 EUMP2 =    -0.66333205525227D+03
 SCF Done:  E(RHF) =  -661.296510807     A.U. after   12 cycles
 E2 =    -0.2035670035D+01 EUMP2 =    -0.66333218084214D+03
 SCF Done:  E(RHF) =  -661.296488271     A.U. after   12 cycles
 E2 =    -0.2035722694D+01 EUMP2 =    -0.66333221096475D+03
 SCF Done:  E(RHF) =  -661.296437370     A.U. after   11 cycles
 E2 =    -0.2035776735D+01 EUMP2 =    -0.66333221410514D+03
 SCF Done:  E(RHF) =  -661.296416295     A.U. after    9 cycles
 E2 =    -0.2035797899D+01 EUMP2 =    -0.66333221419448D+03
 Optimization completed.
    -- Stationary point found.

                          Input orientation:
 ---------------------------------------------------------------------
 Center     Atomic      Atomic             Coordinates (Angstroms)
 Number     Number       Type             X           Y           Z
 ---------------------------------------------------------------------
      1          8           0       -3.497818   -1.395195   -0.392784
      2          7           0       -3.105363   -0.240181   -0.139718
      3          8           0       -3.874346    0.725860    0.027544
      4          6           0       -1.663199   -0.040315   -0.021461
      5          6           0       -1.292561    1.248315    0.281607
      6          7           0       -0.055125    1.749876    0.398928
      7          6           0        1.210242    1.030786    0.363588
      8          1           0        1.861154    1.562792    1.073907
      9          6           0        1.905409    1.037295   -0.996047
     10          6           0        3.301784    0.424170   -0.837649
     11          6           0        3.251087   -0.970874   -0.208621
     12          6           0        2.462759   -0.976997    1.102913
     13          6           0        1.054644   -0.417359    0.871137
     14          1           0        0.481058   -0.390699    1.811654
     15          7           0        0.401914   -1.304362   -0.084466
     16          6           0       -0.851094   -1.111740   -0.374512
     17          1           0       -2.095220    1.965535    0.426871
     18          1           0       -0.005936    2.732542    0.641591
     19          1           0        1.304690    0.459822   -1.706755
     20          1           0        1.973807    2.064028   -1.376631
     21          1           0        3.800427    0.382274   -1.812765
     22          1           0        3.907885    1.088906   -0.205696
     23          1           0        2.766697   -1.666465   -0.900882
     24          1           0        4.269882   -1.337934   -0.036537
     25          1           0        2.374790   -1.998281    1.487847
     26          1           0        2.979038   -0.380582    1.867947
     27          1           0       -1.305586   -1.878227   -1.003021
 ---------------------------------------------------------------------

 Alpha  occ. eigenvalues --  -20.59406 -20.59061 -15.84810 -15.64394 -15.55670
 Alpha  occ. eigenvalues --  -11.35215 -11.29563 -11.28877 -11.28384 -11.26939
 Alpha  occ. eigenvalues --  -11.23695 -11.23155 -11.22567 -11.21988  -1.57278
 Alpha  occ. eigenvalues --   -1.36883  -1.31247  -1.22931  -1.15041  -1.09757
 Alpha  occ. eigenvalues --   -1.02811  -1.01153  -0.94608  -0.90298  -0.85531
 Alpha  occ. eigenvalues --   -0.82718  -0.78888  -0.77388  -0.75280  -0.72394
 Alpha  occ. eigenvalues --   -0.69900  -0.69494  -0.67858  -0.64756  -0.63744
 Alpha  occ. eigenvalues --   -0.62384  -0.60427  -0.57717  -0.56897  -0.55097
 Alpha  occ. eigenvalues --   -0.54461  -0.50714  -0.50248  -0.48740  -0.48096
 Alpha  occ. eigenvalues --   -0.47438  -0.46153  -0.45967  -0.43791  -0.41756
 Alpha  occ. eigenvalues --   -0.39671  -0.33502
 Alpha virt. eigenvalues --    0.07391   0.11433   0.17237   0.21905   0.24171
 Alpha virt. eigenvalues --    0.25842   0.27235   0.28805   0.29103   0.29769
 Alpha virt. eigenvalues --    0.30708   0.31903   0.32087   0.32857   0.34023

 Mulliken charges:
               1
     1  O   -0.464751
     2  N    0.489007
     3  O   -0.503158
     4  C    0.025467
     5  C    0.190323
     6  N   -0.776016
     7  C    0.058171
     8  H    0.179863
     9  C   -0.300516
    10  C   -0.328034
    11  C   -0.321106
    12  C   -0.305721
    13  C   -0.038031
    14  H    0.186928
    15  N   -0.521664
    16  C    0.099514
    17  H    0.298151
    18  H    0.406041
    19  H    0.190698
    20  H    0.161054
    21  H    0.174482
    22  H    0.149050
    23  H    0.200583
    24  H    0.163874
    25  H    0.186668
    26  H    0.149197
    27  H    0.249924
 Sum of Mulliken charges =  -0.00000

 Dipole moment (field-independent basis, Debye):
    X=              5.2422    Y=              4.9139    Z=              1.3678  Tot=              7.3142
 Quadrupole moment (field-independent basis, Debye-Ang):
   XX=           -105.6951   YY=            -79.2835   ZZ=            -81.4642
   XY=             -1.7845   XZ=             -0.4296   YZ=              1.9436

 Normal termination of Gaussian 16 at Fri Jun 30 20:55:02 2023.
