 Gaussian 16, Revision C.02,
 Gaussian 16:  ES64L-G16RevC.02  7-Dec-2021

 ---------------------------------------------------------
 #MP2/6-31G* SCF=Tight Opt=(ModRedun, MaxCycle=20 ) NoSymm
 ---------------------------------------------------------

 --------
 MolName:
 --------
 Symbolic Z-matrix:
 Charge =  0 Multiplicity = 1

 SCF Done:  E(RHF) =  -661.277475552     A.U. after   16 cycles
 E2 =    -0.2037837393D+01 EUMP2 =    -0.66331531294489D+03
 SCF Done:  E(RHF) =  -661.294473738     A.U. after   15 cycles
 E2 =    -0.2033616058D+01 EUMP2 =    -0.66332808979597D+03
 SCF Done:  E(RHF) =  -661.296197265     A.U. after   14 cycles
 E2 =    -0.2034041737D+01 EUMP2 =    -0.66333023900160D+03
 SCF Done:  E(RHF) =  -661.293971567     A.U. after   15 cycles
 E2 =    -0.2035459970D+01 EUMP2 =    -0.66332943153747D+03
 SCF Done:  E(RHF) =  -661.292397333     A.U. after   15 cycles
 E2 =    -0.2037106777D+01 EUMP2 =    -0.66332950410984D+03
 SCF Done:  E(RHF) =  -661.295690005     A.U. after   11 cycles
 E2 =    -0.2035209817D+01 EUMP2 =    -0.66333089982226D+03
 SCF Done:  E(RHF) =  -661.295786877     A.U. after   14 cycles
 E2 =    -0.2035511772D+01 EUMP2 =    -0.66333129864909D+03
 SCF Done:  E(RHF) =  -661.296205895     A.U. after   12 cycles
 E2 =    -0.2035165847D+01 EUMP2 =    -0.66333137174221D+03
 SCF Done:  E(RHF) =  -661.296351419     A.U. after   11 cycles
 E2 =    -0.2035036564D+01 EUMP2 =    -0.66333138798293D+03
 SCF Done:  E(RHF) =  -661.296297977     A.U. after   11 cycles
 E2 =    -0.2035093780D+01 EUMP2 =    -0.66333139175703D+03
 SCF Done:  E(RHF) =  -661.296286779     A.U. after   10 cycles
 E2 =    -0.2035105497D+01 EUMP2 =    -0.66333139227588D+03
 Optimization completed.
    -- Stationary point found.

                          Input orientation:
 ---------------------------------------------------------------------
 Center     Atomic      Atomic             Coordinates (Angstroms)
 Number     Number       Type             X           Y           Z
 ---------------------------------------------------------------------
      1          8           0       -3.411216   -1.464444   -0.353527
      2          7           0       -3.081613   -0.287017   -0.123079
      3          8           0       -3.906094    0.639593    0.021807
      4          6           0       -1.658623    0.030280   -0.001567
      5          6           0       -1.295646    1.314338    0.275333
      6          7           0       -0.043603    1.787605    0.382709
      7          6           0        1.204990    1.031681    0.361570
      8          1           0        1.859009    1.545450    1.081945
      9          6           0        1.911516    1.039597   -0.993364
     10          6           0        3.304524    0.420658   -0.830827
     11          6           0        3.243462   -0.976551   -0.208479
     12          6           0        2.447584   -0.982140    1.098176
     13          6           0        1.040116   -0.422404    0.859409
     14          1           0        0.463904   -0.399775    1.798005
     15          7           0        0.388480   -1.320782   -0.092400
     16          6           0       -0.859948   -1.125778   -0.377785
     17          1           0       -2.093198    2.039352    0.416086
     18          1           0        0.033841    2.768634    0.623271
     19          1           0        1.312553    0.468694   -1.711149
     20          1           0        1.986340    2.067622   -1.369070
     21          1           0        3.808445    0.381188   -1.803358
     22          1           0        3.909806    1.079774   -0.192277
     23          1           0        2.759207   -1.667167   -0.905964
     24          1           0        4.259065   -1.350193   -0.031797
     25          1           0        2.355468   -2.003495    1.481838
     26          1           0        2.960527   -0.387333    1.866581
     27          1           0       -1.337893   -1.864389   -1.015076
 ---------------------------------------------------------------------

 Alpha  occ. eigenvalues --  -20.59419 -20.58771 -15.84599 -15.64023 -15.55950
 Alpha  occ. eigenvalues --  -11.35223 -11.29635 -11.29187 -11.28693 -11.27079
 Alpha  occ. eigenvalues --  -11.23672 -11.23149 -11.22626 -11.22023  -1.57079
 Alpha  occ. eigenvalues --   -1.36672  -1.30859  -1.22904  -1.14564  -1.09634
 Alpha  occ. eigenvalues --   -1.02772  -1.01116  -0.94896  -0.89169  -0.85453
 Alpha  occ. eigenvalues --   -0.82397  -0.78384  -0.77399  -0.75355  -0.71783
 Alpha  occ. eigenvalues --   -0.69753  -0.69332  -0.67721  -0.64904  -0.63590
 Alpha  occ. eigenvalues --   -0.62407  -0.60483  -0.57640  -0.56946  -0.55089
 Alpha  occ. eigenvalues --   -0.54493  -0.50740  -0.50106  -0.48820  -0.47971
 Alpha  occ. eigenvalues --   -0.47316  -0.45996  -0.45918  -0.43618  -0.41495
 Alpha  occ. eigenvalues --   -0.39675  -0.33868
 Alpha virt. eigenvalues --    0.07257   0.12128   0.17221   0.21846   0.24110
 Alpha virt. eigenvalues --    0.25621   0.27138   0.28626   0.29046   0.29490
 Alpha virt. eigenvalues --    0.30531   0.31980   0.32013   0.32817   0.34026

 Mulliken charges:
               1
     1  O   -0.468847
     2  N    0.492737
     3  O   -0.499248
     4  C   -0.002455
     5  C    0.185559
     6  N   -0.780189
     7  C    0.059612
     8  H    0.180087
     9  C   -0.300989
    10  C   -0.327557
    11  C   -0.321507
    12  C   -0.306847
    13  C   -0.038505
    14  H    0.189869
    15  N   -0.511342
    16  C    0.117330
    17  H    0.293925
    18  H    0.404169
    19  H    0.189640
    20  H    0.161188
    21  H    0.174273
    22  H    0.149075
    23  H    0.200199
    24  H    0.164262
    25  H    0.187390
    26  H    0.149897
    27  H    0.258275
 Sum of Mulliken charges =  -0.00000

 Dipole moment (field-independent basis, Debye):
    X=              5.2773    Y=              4.9751    Z=              1.3046  Tot=              7.3691
 Quadrupole moment (field-independent basis, Debye-Ang):
   XX=           -105.5154   YY=            -79.0553   ZZ=            -81.4615
   XY=             -2.1371   XZ=             -0.1184   YZ=              2.0679

 Normal termination of Gaussian 16 at Sat Jul  1 17:34:14 2023.
