 Gaussian 16, Revision C.02,
 Gaussian 16:  ES64L-G16RevC.02  7-Dec-2021

 ---------------------------------------------------------
 #MP2/6-31G* SCF=Tight Opt=(ModRedun, MaxCycle=20 ) NoSymm
 ---------------------------------------------------------

 --------
 MolName:
 --------
 Symbolic Z-matrix:
 Charge =  0 Multiplicity = 1

 SCF Done:  E(RHF) =  -661.280356924     A.U. after   16 cycles
 E2 =    -0.2037399582D+01 EUMP2 =    -0.66331775650604D+03
 SCF Done:  E(RHF) =  -661.297440991     A.U. after   14 cycles
 E2 =    -0.2032968123D+01 EUMP2 =    -0.66333040911434D+03
 SCF Done:  E(RHF) =  -661.299056751     A.U. after   14 cycles
 E2 =    -0.2033559816D+01 EUMP2 =    -0.66333261656772D+03
 SCF Done:  E(RHF) =  -661.288042465     A.U. after   17 cycles
 E2 =    -0.2036235439D+01 EUMP2 =    -0.66332427790490D+03
 SCF Done:  E(RHF) =  -661.298428633     A.U. after   14 cycles
 E2 =    -0.2035147771D+01 EUMP2 =    -0.66333357640327D+03
 SCF Done:  E(RHF) =  -661.298803771     A.U. after   12 cycles
 E2 =    -0.2034984987D+01 EUMP2 =    -0.66333378875817D+03
 SCF Done:  E(RHF) =  -661.299333333     A.U. after   12 cycles
 E2 =    -0.2034511228D+01 EUMP2 =    -0.66333384456094D+03
 SCF Done:  E(RHF) =  -661.299401314     A.U. after   11 cycles
 E2 =    -0.2034452719D+01 EUMP2 =    -0.66333385403231D+03
 SCF Done:  E(RHF) =  -661.299320792     A.U. after   11 cycles
 E2 =    -0.2034535729D+01 EUMP2 =    -0.66333385652085D+03
 Optimization completed.
    -- Stationary point found.

                          Input orientation:
 ---------------------------------------------------------------------
 Center     Atomic      Atomic             Coordinates (Angstroms)
 Number     Number       Type             X           Y           Z
 ---------------------------------------------------------------------
      1          8           0       -3.458606   -1.426000   -0.368577
      2          7           0       -3.101224   -0.258468   -0.124327
      3          8           0       -3.900478    0.686171    0.033827
      4          6           0       -1.672095    0.002751   -0.004157
      5          6           0       -1.298414    1.287314    0.276087
      6          7           0       -0.050433    1.768647    0.386446
      7          6           0        1.205552    1.027699    0.361766
      8          1           0        1.856927    1.549115    1.079167
      9          6           0        1.909422    1.037391   -0.994197
     10          6           0        3.305306    0.424711   -0.832056
     11          6           0        3.251385   -0.972040   -0.207623
     12          6           0        2.456974   -0.980184    1.100034
     13          6           0        1.048169   -0.423849    0.863199
     14          1           0        0.472266   -0.402256    1.801995
     15          7           0        0.399053   -1.319719   -0.090566
     16          6           0       -0.848988   -1.132437   -0.380217
     17          1           0       -2.094903    2.013196    0.416767
     18          1           0        0.017981    2.751783    0.621409
     19          1           0        1.312367    0.463113   -1.710705
     20          1           0        1.979346    2.065411   -1.370877
     21          1           0        3.808360    0.386061   -1.805014
     22          1           0        3.908310    1.087418   -0.195130
     23          1           0        2.769878   -1.665740   -0.903914
     24          1           0        4.268903   -1.340600   -0.031519
     25          1           0        2.368764   -2.001771    1.484012
     26          1           0        2.968724   -0.383532    1.867768
     27          1           0       -1.320546   -1.880173   -1.014607
 ---------------------------------------------------------------------

 Alpha  occ. eigenvalues --  -20.59326 -20.58834 -15.84660 -15.64087 -15.56023
 Alpha  occ. eigenvalues --  -11.35125 -11.29630 -11.29365 -11.28640 -11.27104
 Alpha  occ. eigenvalues --  -11.23700 -11.23178 -11.22657 -11.22054  -1.57105
 Alpha  occ. eigenvalues --   -1.36700  -1.30922  -1.22989  -1.14638  -1.09731
 Alpha  occ. eigenvalues --   -1.02789  -1.01212  -0.94686  -0.89427  -0.85508
 Alpha  occ. eigenvalues --   -0.82427  -0.78504  -0.77408  -0.75279  -0.71907
 Alpha  occ. eigenvalues --   -0.69768  -0.69394  -0.67772  -0.64895  -0.63697
 Alpha  occ. eigenvalues --   -0.62391  -0.60378  -0.57671  -0.56972  -0.55086
 Alpha  occ. eigenvalues --   -0.54542  -0.50744  -0.50110  -0.48748  -0.48041
 Alpha  occ. eigenvalues --   -0.47352  -0.46077  -0.45982  -0.43651  -0.41604
 Alpha  occ. eigenvalues --   -0.39764  -0.33843
 Alpha virt. eigenvalues --    0.07365   0.11957   0.17266   0.21854   0.24123
 Alpha virt. eigenvalues --    0.25658   0.27142   0.28669   0.29046   0.29561
 Alpha virt. eigenvalues --    0.30616   0.31888   0.32019   0.32793   0.33988

 Mulliken charges:
               1
     1  O   -0.468106
     2  N    0.492815
     3  O   -0.501928
     4  C   -0.002090
     5  C    0.187892
     6  N   -0.780199
     7  C    0.059831
     8  H    0.180123
     9  C   -0.301223
    10  C   -0.327753
    11  C   -0.321536
    12  C   -0.306743
    13  C   -0.037786
    14  H    0.189908
    15  N   -0.511457
    16  C    0.118414
    17  H    0.294681
    18  H    0.404549
    19  H    0.189952
    20  H    0.161277
    21  H    0.174468
    22  H    0.149220
    23  H    0.200122
    24  H    0.164404
    25  H    0.187226
    26  H    0.150098
    27  H    0.253841
 Sum of Mulliken charges =  -0.00000

 Dipole moment (field-independent basis, Debye):
    X=              5.3462    Y=              4.8849    Z=              1.3052  Tot=              7.3585
 Quadrupole moment (field-independent basis, Debye-Ang):
   XX=           -105.8193   YY=            -79.1325   ZZ=            -81.4869
   XY=             -1.9318   XZ=             -0.1745   YZ=              1.9547

 Normal termination of Gaussian 16 at Sat Jul  1 17:10:50 2023.
