 Gaussian 16, Revision C.02,
 Gaussian 16:  ES64L-G16RevC.02  7-Dec-2021

 ---------------------------------------------------------
 #MP2/6-31G* SCF=Tight Opt=(ModRedun, MaxCycle=20 ) NoSymm
 ---------------------------------------------------------

 --------
 MolName:
 --------
 Symbolic Z-matrix:
 Charge =  0 Multiplicity = 1

 SCF Done:  E(RHF) =  -661.280962386     A.U. after   16 cycles
 E2 =    -0.2037284654D+01 EUMP2 =    -0.66331824703960D+03
 SCF Done:  E(RHF) =  -661.298229042     A.U. after   15 cycles
 E2 =    -0.2032654085D+01 EUMP2 =    -0.66333088312718D+03
 SCF Done:  E(RHF) =  -661.299064171     A.U. after   15 cycles
 E2 =    -0.2033428282D+01 EUMP2 =    -0.66333249245300D+03
 SCF Done:  E(RHF) =  -661.289003690     A.U. after   17 cycles
 E2 =    -0.2036512454D+01 EUMP2 =    -0.66332551614435D+03
 SCF Done:  E(RHF) =  -661.299355552     A.U. after   14 cycles
 E2 =    -0.2034982594D+01 EUMP2 =    -0.66333433814600D+03
 SCF Done:  E(RHF) =  -661.300070235     A.U. after   12 cycles
 E2 =    -0.2034500108D+01 EUMP2 =    -0.66333457034289D+03
 SCF Done:  E(RHF) =  -661.300475204     A.U. after   12 cycles
 E2 =    -0.2034160482D+01 EUMP2 =    -0.66333463568515D+03
 SCF Done:  E(RHF) =  -661.300447515     A.U. after   11 cycles
 E2 =    -0.2034198892D+01 EUMP2 =    -0.66333464640746D+03
 SCF Done:  E(RHF) =  -661.300391705     A.U. after   10 cycles
 E2 =    -0.2034257428D+01 EUMP2 =    -0.66333464913227D+03
 SCF Done:  E(RHF) =  -661.300361653     A.U. after    9 cycles
 E2 =    -0.2034287730D+01 EUMP2 =    -0.66333464938289D+03
 Optimization completed.
    -- Stationary point found.

                          Input orientation:
 ---------------------------------------------------------------------
 Center     Atomic      Atomic             Coordinates (Angstroms)
 Number     Number       Type             X           Y           Z
 ---------------------------------------------------------------------
      1          8           0       -3.506945   -1.390332   -0.370920
      2          7           0       -3.121121   -0.232239   -0.118474
      3          8           0       -3.895362    0.728842    0.055570
      4          6           0       -1.686640   -0.023794   -0.009738
      5          6           0       -1.301389    1.260671    0.275246
      6          7           0       -0.057149    1.750192    0.386358
      7          6           0        1.205631    1.023973    0.359294
      8          1           0        1.853356    1.552875    1.074741
      9          6           0        1.909159    1.035143   -0.996516
     10          6           0        3.307529    0.428476   -0.832439
     11          6           0        3.259520   -0.967664   -0.205926
     12          6           0        2.464490   -0.978377    1.101518
     13          6           0        1.054769   -0.424646    0.865095
     14          1           0        0.478232   -0.403322    1.803517
     15          7           0        0.408198   -1.318012   -0.091078
     16          6           0       -0.839167   -1.138200   -0.386399
     17          1           0       -2.096146    1.987574    0.418906
     18          1           0        0.001727    2.735344    0.615620
     19          1           0        1.314922    0.457727   -1.712735
     20          1           0        1.975152    2.063093   -1.374197
     21          1           0        3.811515    0.390432   -1.804958
     22          1           0        3.907302    1.094752   -0.196129
     23          1           0        2.781855   -1.664407   -0.901823
     24          1           0        4.278680   -1.331193   -0.028783
     25          1           0        2.379040   -2.000334    1.485286
     26          1           0        2.974438   -0.380602    1.869615
     27          1           0       -1.300586   -1.892972   -1.022642
 ---------------------------------------------------------------------

 Alpha  occ. eigenvalues --  -20.59237 -20.58903 -15.84722 -15.64136 -15.56112
 Alpha  occ. eigenvalues --  -11.35018 -11.29622 -11.29559 -11.28628 -11.27134
 Alpha  occ. eigenvalues --  -11.23729 -11.23208 -11.22692 -11.22090  -1.57116
 Alpha  occ. eigenvalues --   -1.36709  -1.30977  -1.23065  -1.14703  -1.09819
 Alpha  occ. eigenvalues --   -1.02805  -1.01307  -0.94482  -0.89685  -0.85566
 Alpha  occ. eigenvalues --   -0.82448  -0.78609  -0.77411  -0.75203  -0.72020
 Alpha  occ. eigenvalues --   -0.69771  -0.69438  -0.67820  -0.64893  -0.63777
 Alpha  occ. eigenvalues --   -0.62367  -0.60282  -0.57700  -0.57001  -0.55077
 Alpha  occ. eigenvalues --   -0.54582  -0.50762  -0.50108  -0.48656  -0.48102
 Alpha  occ. eigenvalues --   -0.47372  -0.46147  -0.46044  -0.43677  -0.41696
 Alpha  occ. eigenvalues --   -0.39848  -0.33829
 Alpha virt. eigenvalues --    0.07464   0.11799   0.17307   0.21848   0.24113
 Alpha virt. eigenvalues --    0.25664   0.27134   0.28694   0.29043   0.29635
 Alpha virt. eigenvalues --    0.30682   0.31797   0.32036   0.32767   0.33950

 Mulliken charges:
               1
     1  O   -0.467229
     2  N    0.491297
     3  O   -0.504057
     4  C    0.000454
     5  C    0.188873
     6  N   -0.780290
     7  C    0.060265
     8  H    0.180074
     9  C   -0.301426
    10  C   -0.327942
    11  C   -0.321490
    12  C   -0.306654
    13  C   -0.037183
    14  H    0.189956
    15  N   -0.511213
    16  C    0.120032
    17  H    0.295305
    18  H    0.404876
    19  H    0.190181
    20  H    0.161385
    21  H    0.174648
    22  H    0.149363
    23  H    0.199930
    24  H    0.164542
    25  H    0.187065
    26  H    0.150347
    27  H    0.248893
 Sum of Mulliken charges =  -0.00000

 Dipole moment (field-independent basis, Debye):
    X=              5.4161    Y=              4.7958    Z=              1.2813  Tot=              7.3468
 Quadrupole moment (field-independent basis, Debye-Ang):
   XX=           -106.1409   YY=            -79.2253   ZZ=            -81.5009
   XY=             -1.7650   XZ=             -0.1327   YZ=              1.8568

 Normal termination of Gaussian 16 at Sat Jul  1 15:56:01 2023.
