 Gaussian 16, Revision C.02,
 Gaussian 16:  ES64L-G16RevC.02  7-Dec-2021

 ---------------------------------------------------------
 #MP2/6-31G* SCF=Tight Opt=(ModRedun, MaxCycle=20 ) NoSymm
 ---------------------------------------------------------

 --------
 MolName:
 --------
 Symbolic Z-matrix:
 Charge =  0 Multiplicity = 1

 SCF Done:  E(RHF) =  -661.279408900     A.U. after   16 cycles
 E2 =    -0.2037485778D+01 EUMP2 =    -0.66331689467813D+03
 SCF Done:  E(RHF) =  -661.296935146     A.U. after   15 cycles
 E2 =    -0.2032663992D+01 EUMP2 =    -0.66332959913804D+03
 SCF Done:  E(RHF) =  -661.296180717     A.U. after   15 cycles
 E2 =    -0.2033585733D+01 EUMP2 =    -0.66332976644998D+03
 SCF Done:  E(RHF) =  -661.290352168     A.U. after   17 cycles
 E2 =    -0.2036145069D+01 EUMP2 =    -0.66332649723729D+03
 SCF Done:  E(RHF) =  -661.297789062     A.U. after   15 cycles
 E2 =    -0.2035214388D+01 EUMP2 =    -0.66333300345023D+03
 SCF Done:  E(RHF) =  -661.299153836     A.U. after   14 cycles
 E2 =    -0.2034615701D+01 EUMP2 =    -0.66333376953644D+03
 SCF Done:  E(RHF) =  -661.299592412     A.U. after   12 cycles
 E2 =    -0.2034279355D+01 EUMP2 =    -0.66333387176647D+03
 SCF Done:  E(RHF) =  -661.299712000     A.U. after   12 cycles
 E2 =    -0.2034182362D+01 EUMP2 =    -0.66333389436118D+03
 SCF Done:  E(RHF) =  -661.299681417     A.U. after   11 cycles
 E2 =    -0.2034217214D+01 EUMP2 =    -0.66333389863136D+03
 SCF Done:  E(RHF) =  -661.299631937     A.U. after   10 cycles
 E2 =    -0.2034267512D+01 EUMP2 =    -0.66333389944997D+03
 SCF Done:  E(RHF) =  -661.299616302     A.U. after    9 cycles
 E2 =    -0.2034283267D+01 EUMP2 =    -0.66333389956819D+03
 Optimization completed.
    -- Stationary point found.

                          Input orientation:
 ---------------------------------------------------------------------
 Center     Atomic      Atomic             Coordinates (Angstroms)
 Number     Number       Type             X           Y           Z
 ---------------------------------------------------------------------
      1          8           0       -3.555388   -1.354801   -0.371904
      2          7           0       -3.140950   -0.206934   -0.112610
      3          8           0       -3.890277    0.768963    0.079609
      4          6           0       -1.701487   -0.048434   -0.020101
      5          6           0       -1.304477    1.235353    0.272056
      6          7           0       -0.063665    1.732554    0.383932
      7          6           0        1.205562    1.020272    0.356875
      8          1           0        1.848616    1.555847    1.071818
      9          6           0        1.911457    1.033125   -0.997355
     10          6           0        3.311543    0.431432   -0.828982
     11          6           0        3.267250   -0.964407   -0.201255
     12          6           0        2.469063   -0.977734    1.104403
     13          6           0        1.059358   -0.425643    0.865887
     14          1           0        0.480318   -0.404860    1.802795
     15          7           0        0.416969   -1.314491   -0.095393
     16          6           0       -0.828733   -1.140955   -0.399445
     17          1           0       -2.096843    1.963532    0.420408
     18          1           0       -0.013830    2.719014    0.609866
     19          1           0        1.321219    0.453458   -1.714908
     20          1           0        1.974939    2.061203   -1.375166
     21          1           0        3.818277    0.394212   -1.800092
     22          1           0        3.907289    1.100442   -0.191748
     23          1           0        2.794340   -1.663444   -0.898084
     24          1           0        4.287393   -1.323711   -0.021222
     25          1           0        2.385025   -2.000126    1.487429
     26          1           0        2.975981   -0.379387    1.874079
     27          1           0       -1.276960   -1.900470   -1.041911
 ---------------------------------------------------------------------

 Alpha  occ. eigenvalues --  -20.59160 -20.58975 -15.84792 -15.64167 -15.56207
 Alpha  occ. eigenvalues --  -11.34902 -11.29763 -11.29610 -11.28652 -11.27160
 Alpha  occ. eigenvalues --  -11.23747 -11.23233 -11.22725 -11.22121  -1.57138
 Alpha  occ. eigenvalues --   -1.36722  -1.31017  -1.23143  -1.14750  -1.09885
 Alpha  occ. eigenvalues --   -1.02819  -1.01395  -0.94277  -0.89933  -0.85618
 Alpha  occ. eigenvalues --   -0.82457  -0.78702  -0.77411  -0.75122  -0.72120
 Alpha  occ. eigenvalues --   -0.69773  -0.69475  -0.67867  -0.64893  -0.63843
 Alpha  occ. eigenvalues --   -0.62340  -0.60189  -0.57724  -0.57028  -0.55067
 Alpha  occ. eigenvalues --   -0.54611  -0.50787  -0.50104  -0.48554  -0.48156
 Alpha  occ. eigenvalues --   -0.47375  -0.46206  -0.46099  -0.43704  -0.41771
 Alpha  occ. eigenvalues --   -0.39923  -0.33822
 Alpha virt. eigenvalues --    0.07566   0.11659   0.17350   0.21836   0.24082
 Alpha virt. eigenvalues --    0.25639   0.27117   0.28704   0.29043   0.29706
 Alpha virt. eigenvalues --    0.30737   0.31722   0.32071   0.32743   0.33919

 Mulliken charges:
               1
     1  O   -0.466274
     2  N    0.488700
     3  O   -0.505601
     4  C    0.004719
     5  C    0.188773
     6  N   -0.780466
     7  C    0.060585
     8  H    0.179989
     9  C   -0.301547
    10  C   -0.328136
    11  C   -0.321415
    12  C   -0.306583
    13  C   -0.036625
    14  H    0.189986
    15  N   -0.510669
    16  C    0.121788
    17  H    0.295747
    18  H    0.405127
    19  H    0.190400
    20  H    0.161483
    21  H    0.174798
    22  H    0.149483
    23  H    0.199735
    24  H    0.164657
    25  H    0.186859
    26  H    0.150612
    27  H    0.243874
 Sum of Mulliken charges =  -0.00000

 Dipole moment (field-independent basis, Debye):
    X=              5.4805    Y=              4.7004    Z=              1.2535  Tot=              7.3281
 Quadrupole moment (field-independent basis, Debye-Ang):
   XX=           -106.4666   YY=            -79.3203   ZZ=            -81.5059
   XY=             -1.6114   XZ=             -0.0522   YZ=              1.7693

 Normal termination of Gaussian 16 at Sat Jul  1 16:18:54 2023.
