 Gaussian 16, Revision C.02,
 Gaussian 16:  ES64L-G16RevC.02  7-Dec-2021

 ---------------------------------------------------------
 #MP2/6-31G* SCF=Tight Opt=(ModRedun, MaxCycle=20 ) NoSymm
 ---------------------------------------------------------

 --------
 MolName:
 --------
 Symbolic Z-matrix:
 Charge =  0 Multiplicity = 1

 SCF Done:  E(RHF) =  -661.275772577     A.U. after   16 cycles
 E2 =    -0.2038005876D+01 EUMP2 =    -0.66331377845334D+03
 SCF Done:  E(RHF) =  -661.293596992     A.U. after   15 cycles
 E2 =    -0.2033001905D+01 EUMP2 =    -0.66332659889621D+03
 SCF Done:  E(RHF) =  -661.291467290     A.U. after   17 cycles
 E2 =    -0.2033826005D+01 EUMP2 =    -0.66332529329470D+03
 SCF Done:  E(RHF) =  -661.288617224     A.U. after   16 cycles
 E2 =    -0.2036277612D+01 EUMP2 =    -0.66332489483551D+03
 SCF Done:  E(RHF) =  -661.285107881     A.U. after   15 cycles
 E2 =    -0.2036916295D+01 EUMP2 =    -0.66332202417610D+03
 SCF Done:  E(RHF) =  -661.293895140     A.U. after   12 cycles
 E2 =    -0.2033941835D+01 EUMP2 =    -0.66332783697586D+03
 SCF Done:  E(RHF) =  -661.296156740     A.U. after   15 cycles
 E2 =    -0.2034856028D+01 EUMP2 =    -0.66333101276874D+03
 SCF Done:  E(RHF) =  -661.296801395     A.U. after   14 cycles
 E2 =    -0.2034767764D+01 EUMP2 =    -0.66333156915983D+03
 SCF Done:  E(RHF) =  -661.297255708     A.U. after   12 cycles
 E2 =    -0.2034437412D+01 EUMP2 =    -0.66333169311960D+03
 SCF Done:  E(RHF) =  -661.297319433     A.U. after   12 cycles
 E2 =    -0.2034401012D+01 EUMP2 =    -0.66333172044433D+03
 SCF Done:  E(RHF) =  -661.297263332     A.U. after   11 cycles
 E2 =    -0.2034465455D+01 EUMP2 =    -0.66333172878708D+03
 SCF Done:  E(RHF) =  -661.297229235     A.U. after   10 cycles
 E2 =    -0.2034500445D+01 EUMP2 =    -0.66333172968021D+03
 SCF Done:  E(RHF) =  -661.297213354     A.U. after    9 cycles
 E2 =    -0.2034516404D+01 EUMP2 =    -0.66333172975851D+03
 SCF Done:  E(RHF) =  -661.297214569     A.U. after    8 cycles
 E2 =    -0.2034515208D+01 EUMP2 =    -0.66333172977718D+03
 Optimization completed.
    -- Stationary point found.

                          Input orientation:
 ---------------------------------------------------------------------
 Center     Atomic      Atomic             Coordinates (Angstroms)
 Number     Number       Type             X           Y           Z
 ---------------------------------------------------------------------
      1          8           0       -3.604781   -1.320273   -0.366911
      2          7           0       -3.160936   -0.183270   -0.103343
      3          8           0       -3.885158    0.806125    0.108993
      4          6           0       -1.716966   -0.072045   -0.033034
      5          6           0       -1.307818    1.210605    0.267654
      6          7           0       -0.070155    1.715206    0.379791
      7          6           0        1.205108    1.016337    0.353827
      8          1           0        1.842597    1.557878    1.069505
      9          6           0        1.915427    1.031815   -0.997728
     10          6           0        3.316740    0.434503   -0.823449
     11          6           0        3.274864   -0.961560   -0.195735
     12          6           0        2.471607   -0.978512    1.106951
     13          6           0        1.062471   -0.427200    0.865134
     14          1           0        0.479874   -0.407296    1.799888
     15          7           0        0.425006   -1.309922   -0.103064
     16          6           0       -0.818460   -1.141687   -0.417422
     17          1           0       -2.097199    1.940184    0.422664
     18          1           0       -0.029124    2.702507    0.603971
     19          1           0        1.330148    0.450845   -1.718093
     20          1           0        1.977349    2.060361   -1.374575
     21          1           0        3.827655    0.398808   -1.792407
     22          1           0        3.907705    1.105505   -0.183853
     23          1           0        2.807622   -1.662153   -0.894781
     24          1           0        4.295607   -1.317025   -0.011581
     25          1           0        2.388108   -2.001685    1.488131
     26          1           0        2.974658   -0.380608    1.879511
     27          1           0       -1.250961   -1.903444   -1.070044
 ---------------------------------------------------------------------

 Alpha  occ. eigenvalues --  -20.59090 -20.59044 -15.84867 -15.64182 -15.56310
 Alpha  occ. eigenvalues --  -11.34777 -11.29973 -11.29594 -11.28709 -11.27185
 Alpha  occ. eigenvalues --  -11.23760 -11.23255 -11.22758 -11.22152  -1.57162
 Alpha  occ. eigenvalues --   -1.36729  -1.31046  -1.23220  -1.14782  -1.09935
 Alpha  occ. eigenvalues --   -1.02832  -1.01476  -0.94076  -0.90170  -0.85667
 Alpha  occ. eigenvalues --   -0.82456  -0.78786  -0.77406  -0.75036  -0.72208
 Alpha  occ. eigenvalues --   -0.69774  -0.69502  -0.67911  -0.64894  -0.63893
 Alpha  occ. eigenvalues --   -0.62309  -0.60100  -0.57744  -0.57056  -0.55055
 Alpha  occ. eigenvalues --   -0.54632  -0.50820  -0.50094  -0.48449  -0.48200
 Alpha  occ. eigenvalues --   -0.47358  -0.46263  -0.46139  -0.43728  -0.41833
 Alpha  occ. eigenvalues --   -0.39992  -0.33819
 Alpha virt. eigenvalues --    0.07663   0.11537   0.17393   0.21818   0.24025
 Alpha virt. eigenvalues --    0.25582   0.27094   0.28702   0.29038   0.29761
 Alpha virt. eigenvalues --    0.30782   0.31665   0.32122   0.32722   0.33892

 Mulliken charges:
               1
     1  O   -0.465426
     2  N    0.485209
     3  O   -0.506512
     4  C    0.010351
     5  C    0.187651
     6  N   -0.780743
     7  C    0.060883
     8  H    0.179842
     9  C   -0.301584
    10  C   -0.328342
    11  C   -0.321291
    12  C   -0.306528
    13  C   -0.036120
    14  H    0.190016
    15  N   -0.509883
    16  C    0.123760
    17  H    0.296021
    18  H    0.405335
    19  H    0.190580
    20  H    0.161574
    21  H    0.174926
    22  H    0.149594
    23  H    0.199480
    24  H    0.164762
    25  H    0.186632
    26  H    0.150899
    27  H    0.238914
 Sum of Mulliken charges =  -0.00000

 Dipole moment (field-independent basis, Debye):
    X=              5.5425    Y=              4.6007    Z=              1.2150  Tot=              7.3049
 Quadrupole moment (field-independent basis, Debye-Ang):
   XX=           -106.8038   YY=            -79.4190   ZZ=            -81.5030
   XY=             -1.4751   XZ=              0.0895   YZ=              1.6911

 Normal termination of Gaussian 16 at Sat Jul  1 16:50:37 2023.
