 Gaussian 16, Revision C.02,
 Gaussian 16:  ES64L-G16RevC.02  7-Dec-2021

 ---------------------------------------------------------
 #MP2/6-31G* SCF=Tight Opt=(ModRedun, MaxCycle=20 ) NoSymm
 ---------------------------------------------------------

 --------
 MolName:
 --------
 Symbolic Z-matrix:
 Charge =  0 Multiplicity = 1

 SCF Done:  E(RHF) =  -661.279973875     A.U. after   16 cycles
 E2 =    -0.2037457876D+01 EUMP2 =    -0.66331743175121D+03
 SCF Done:  E(RHF) =  -661.297031092     A.U. after   14 cycles
 E2 =    -0.2033068992D+01 EUMP2 =    -0.66333010008420D+03
 SCF Done:  E(RHF) =  -661.298699751     A.U. after   14 cycles
 E2 =    -0.2033627803D+01 EUMP2 =    -0.66333232755333D+03
 SCF Done:  E(RHF) =  -661.289831620     A.U. after   17 cycles
 E2 =    -0.2035994695D+01 EUMP2 =    -0.66332582631426D+03
 SCF Done:  E(RHF) =  -661.297718793     A.U. after   15 cycles
 E2 =    -0.2035425327D+01 EUMP2 =    -0.66333314412006D+03
 SCF Done:  E(RHF) =  -661.298324464     A.U. after   13 cycles
 E2 =    -0.2035110398D+01 EUMP2 =    -0.66333343486152D+03
 SCF Done:  E(RHF) =  -661.298879667     A.U. after   12 cycles
 E2 =    -0.2034611614D+01 EUMP2 =    -0.66333349128076D+03
 SCF Done:  E(RHF) =  -661.299011249     A.U. after   11 cycles
 E2 =    -0.2034490578D+01 EUMP2 =    -0.66333350182628D+03
 SCF Done:  E(RHF) =  -661.298905076     A.U. after   10 cycles
 E2 =    -0.2034600576D+01 EUMP2 =    -0.66333350565184D+03
 SCF Done:  E(RHF) =  -661.298866437     A.U. after    9 cycles
 E2 =    -0.2034639486D+01 EUMP2 =    -0.66333350592230D+03
 Optimization completed.
    -- Stationary point found.

                          Input orientation:
 ---------------------------------------------------------------------
 Center     Atomic      Atomic             Coordinates (Angstroms)
 Number     Number       Type             X           Y           Z
 ---------------------------------------------------------------------
      1          8           0       -3.449360   -1.434381   -0.363125
      2          7           0       -3.097373   -0.264629   -0.122011
      3          8           0       -3.901577    0.676629    0.033392
      4          6           0       -1.669569    0.007418   -0.001730
      5          6           0       -1.297946    1.292043    0.276904
      6          7           0       -0.049237    1.772073    0.386058
      7          6           0        1.205389    1.028592    0.361177
      8          1           0        1.857591    1.548834    1.078679
      9          6           0        1.908944    1.037765   -0.995045
     10          6           0        3.304564    0.424333   -0.833525
     11          6           0        3.250063   -0.972326   -0.209103
     12          6           0        2.456183   -0.979933    1.098881
     13          6           0        1.047267   -0.423295    0.862569
     14          1           0        0.472001   -0.401276    1.801746
     15          7           0        0.396938   -1.320422   -0.089833
     16          6           0       -0.851526   -1.132102   -0.377603
     17          1           0       -2.094777    2.017683    0.417420
     18          1           0        0.020681    2.755123    0.620843
     19          1           0        1.311137    0.463777   -1.711232
     20          1           0        1.979334    2.065683   -1.371950
     21          1           0        3.807278    0.385399   -1.806690
     22          1           0        3.908197    1.086722   -0.196801
     23          1           0        2.767811   -1.665765   -0.905166
     24          1           0        4.267474   -1.341485   -0.033452
     25          1           0        2.367632   -2.001465    1.482971
     26          1           0        2.968631   -0.383493    1.866353
     27          1           0       -1.324751   -1.878523   -1.011707
 ---------------------------------------------------------------------

 Alpha  occ. eigenvalues --  -20.59341 -20.58822 -15.84646 -15.64078 -15.56008
 Alpha  occ. eigenvalues --  -11.35145 -11.29632 -11.29328 -11.28646 -11.27101
 Alpha  occ. eigenvalues --  -11.23698 -11.23174 -11.22653 -11.22050  -1.57093
 Alpha  occ. eigenvalues --   -1.36689  -1.30914  -1.22968  -1.14627  -1.09717
 Alpha  occ. eigenvalues --   -1.02786  -1.01195  -0.94730  -0.89377  -0.85500
 Alpha  occ. eigenvalues --   -0.82422  -0.78482  -0.77405  -0.75295  -0.71884
 Alpha  occ. eigenvalues --   -0.69763  -0.69380  -0.67761  -0.64896  -0.63674
 Alpha  occ. eigenvalues --   -0.62395  -0.60399  -0.57667  -0.56968  -0.55086
 Alpha  occ. eigenvalues --   -0.54534  -0.50744  -0.50109  -0.48764  -0.48027
 Alpha  occ. eigenvalues --   -0.47345  -0.46063  -0.45969  -0.43643  -0.41584
 Alpha  occ. eigenvalues --   -0.39746  -0.33847
 Alpha virt. eigenvalues --    0.07340   0.11989   0.17257   0.21852   0.24122
 Alpha virt. eigenvalues --    0.25652   0.27143   0.28662   0.29044   0.29545
 Alpha virt. eigenvalues --    0.30599   0.31904   0.32016   0.32797   0.33993

 Mulliken charges:
               1
     1  O   -0.468329
     2  N    0.492842
     3  O   -0.501448
     4  C   -0.002266
     5  C    0.187504
     6  N   -0.780196
     7  C    0.059868
     8  H    0.180115
     9  C   -0.301206
    10  C   -0.327704
    11  C   -0.321518
    12  C   -0.306768
    13  C   -0.037931
    14  H    0.189914
    15  N   -0.511527
    16  C    0.118214
    17  H    0.294563
    18  H    0.404491
    19  H    0.189884
    20  H    0.161255
    21  H    0.174436
    22  H    0.149196
    23  H    0.200117
    24  H    0.164379
    25  H    0.187270
    26  H    0.150066
    27  H    0.254779
 Sum of Mulliken charges =  -0.00000

 Dipole moment (field-independent basis, Debye):
    X=              5.3342    Y=              4.9054    Z=              1.3001  Tot=              7.3626
 Quadrupole moment (field-independent basis, Debye-Ang):
   XX=           -105.7606   YY=            -79.1176   ZZ=            -81.4846
   XY=             -1.9764   XZ=             -0.1535   YZ=              1.9740

 Normal termination of Gaussian 16 at Fri Jun 30 22:09:42 2023.
