 Gaussian 16, Revision C.02,
 Gaussian 16:  ES64L-G16RevC.02  7-Dec-2021

 ----------------------------------------------------------
 #MP2/6-31G* SCF=Tight Opt=(ModRedun, MaxCycle=100 ) NoSymm
 ----------------------------------------------------------

 --------
 MolName:
 --------
 Symbolic Z-matrix:
 Charge =  0 Multiplicity = 1

 SCF Done:  E(RHF) =  -661.280968316     A.U. after   16 cycles
 E2 =    -0.2037284751D+01 EUMP2 =    -0.66331825306765D+03
 SCF Done:  E(RHF) =  -661.298239533     A.U. after   15 cycles
 E2 =    -0.2032675459D+01 EUMP2 =    -0.66333091499196D+03
 SCF Done:  E(RHF) =  -661.298946969     A.U. after   15 cycles
 E2 =    -0.2033475233D+01 EUMP2 =    -0.66333242220231D+03
 SCF Done:  E(RHF) =  -661.289375974     A.U. after   17 cycles
 E2 =    -0.2036479044D+01 EUMP2 =    -0.66332585501743D+03
 SCF Done:  E(RHF) =  -661.299280784     A.U. after   14 cycles
 E2 =    -0.2035016019D+01 EUMP2 =    -0.66333429680368D+03
 SCF Done:  E(RHF) =  -661.299942175     A.U. after   13 cycles
 E2 =    -0.2034610262D+01 EUMP2 =    -0.66333455243630D+03
 SCF Done:  E(RHF) =  -661.300455679     A.U. after   12 cycles
 E2 =    -0.2034174087D+01 EUMP2 =    -0.66333462976577D+03
 SCF Done:  E(RHF) =  -661.300484575     A.U. after   11 cycles
 E2 =    -0.2034162155D+01 EUMP2 =    -0.66333464673001D+03
 SCF Done:  E(RHF) =  -661.300407425     A.U. after   10 cycles
 E2 =    -0.2034241799D+01 EUMP2 =    -0.66333464922408D+03
 SCF Done:  E(RHF) =  -661.300360942     A.U. after    9 cycles
 E2 =    -0.2034288456D+01 EUMP2 =    -0.66333464939739D+03
 Optimization completed.
    -- Stationary point found.

                          Input orientation:
 ---------------------------------------------------------------------
 Center     Atomic      Atomic             Coordinates (Angstroms)
 Number     Number       Type             X           Y           Z
 ---------------------------------------------------------------------
      1          8           0       -3.506734   -1.390410   -0.371077
      2          7           0       -3.121099   -0.232274   -0.118506
      3          8           0       -3.895446    0.728690    0.055686
      4          6           0       -1.686650   -0.023755   -0.009744
      5          6           0       -1.301407    1.260704    0.275257
      6          7           0       -0.057165    1.750204    0.386326
      7          6           0        1.205639    1.024004    0.359343
      8          1           0        1.853362    1.552886    1.074814
      9          6           0        1.909171    1.035139   -0.996462
     10          6           0        3.307530    0.428433   -0.832422
     11          6           0        3.259504   -0.967691   -0.205885
     12          6           0        2.464466   -0.978354    1.101547
     13          6           0        1.054760   -0.424620    0.865091
     14          1           0        0.478211   -0.403314    1.803508
     15          7           0        0.408215   -1.317917   -0.091168
     16          6           0       -0.839121   -1.138077   -0.386557
     17          1           0       -2.096162    1.987621    0.418844
     18          1           0        0.001732    2.735383    0.615448
     19          1           0        1.314908    0.457732   -1.712673
     20          1           0        1.975187    2.063084   -1.374153
     21          1           0        3.811491    0.390355   -1.804955
     22          1           0        3.907339    1.094701   -0.196134
     23          1           0        2.781832   -1.664440   -0.901781
     24          1           0        4.278659   -1.331228   -0.028727
     25          1           0        2.378994   -2.000302    1.485338
     26          1           0        2.974416   -0.380561    1.869634
     27          1           0       -1.300622   -1.893002   -1.022562
 ---------------------------------------------------------------------

 Alpha  occ. eigenvalues --  -20.59237 -20.58904 -15.84722 -15.64136 -15.56111
 Alpha  occ. eigenvalues --  -11.35018 -11.29622 -11.29559 -11.28627 -11.27134
 Alpha  occ. eigenvalues --  -11.23728 -11.23208 -11.22692 -11.22089  -1.57116
 Alpha  occ. eigenvalues --   -1.36709  -1.30978  -1.23065  -1.14703  -1.09819
 Alpha  occ. eigenvalues --   -1.02805  -1.01307  -0.94482  -0.89685  -0.85566
 Alpha  occ. eigenvalues --   -0.82448  -0.78609  -0.77411  -0.75203  -0.72020
 Alpha  occ. eigenvalues --   -0.69771  -0.69438  -0.67820  -0.64892  -0.63777
 Alpha  occ. eigenvalues --   -0.62368  -0.60282  -0.57701  -0.57001  -0.55077
 Alpha  occ. eigenvalues --   -0.54582  -0.50762  -0.50108  -0.48656  -0.48102
 Alpha  occ. eigenvalues --   -0.47372  -0.46146  -0.46044  -0.43678  -0.41696
 Alpha  occ. eigenvalues --   -0.39847  -0.33829
 Alpha virt. eigenvalues --    0.07464   0.11799   0.17307   0.21848   0.24113
 Alpha virt. eigenvalues --    0.25665   0.27134   0.28694   0.29044   0.29635
 Alpha virt. eigenvalues --    0.30683   0.31797   0.32036   0.32767   0.33950

 Mulliken charges:
               1
     1  O   -0.467238
     2  N    0.491295
     3  O   -0.504056
     4  C    0.000471
     5  C    0.188879
     6  N   -0.780286
     7  C    0.060261
     8  H    0.180077
     9  C   -0.301429
    10  C   -0.327938
    11  C   -0.321488
    12  C   -0.306655
    13  C   -0.037178
    14  H    0.189956
    15  N   -0.511218
    16  C    0.120002
    17  H    0.295296
    18  H    0.404872
    19  H    0.190185
    20  H    0.161379
    21  H    0.174647
    22  H    0.149360
    23  H    0.199932
    24  H    0.164540
    25  H    0.187063
    26  H    0.150347
    27  H    0.248921
 Sum of Mulliken charges =  -0.00000

 Dipole moment (field-independent basis, Debye):
    X=              5.4157    Y=              4.7961    Z=              1.2813  Tot=              7.3467
 Quadrupole moment (field-independent basis, Debye-Ang):
   XX=           -106.1396   YY=            -79.2243   ZZ=            -81.5017
   XY=             -1.7661   XZ=             -0.1320   YZ=              1.8555

 Normal termination of Gaussian 16 at Fri Jun 30 16:14:36 2023.
