 Gaussian 16, Revision C.02,
 Gaussian 16:  ES64L-G16RevC.02  7-Dec-2021

 ----------------------------------------------------------
 #MP2/6-31G* SCF=Tight Opt=(ModRedun, MaxCycle=100 ) NoSymm
 ----------------------------------------------------------

 --------
 MolName:
 --------
 Symbolic Z-matrix:
 Charge =  0 Multiplicity = 1

 SCF Done:  E(RHF) =  -661.278611780     A.U. after   16 cycles
 E2 =    -0.2036807724D+01 EUMP2 =    -0.66331541950450D+03
 SCF Done:  E(RHF) =  -661.296393704     A.U. after   14 cycles
 E2 =    -0.2032079359D+01 EUMP2 =    -0.66332847306279D+03
 SCF Done:  E(RHF) =  -661.299044383     A.U. after   15 cycles
 E2 =    -0.2032515968D+01 EUMP2 =    -0.66333156035164D+03
 SCF Done:  E(RHF) =  -661.290685315     A.U. after   17 cycles
 E2 =    -0.2035189748D+01 EUMP2 =    -0.66332587506297D+03
 SCF Done:  E(RHF) =  -661.299701718     A.U. after   15 cycles
 E2 =    -0.2034162015D+01 EUMP2 =    -0.66333386373345D+03
 SCF Done:  E(RHF) =  -661.300450886     A.U. after   13 cycles
 E2 =    -0.2033654194D+01 EUMP2 =    -0.66333410507988D+03
 SCF Done:  E(RHF) =  -661.301008378     A.U. after   12 cycles
 E2 =    -0.2033165037D+01 EUMP2 =    -0.66333417341540D+03
 SCF Done:  E(RHF) =  -661.301019498     A.U. after   11 cycles
 E2 =    -0.2033166524D+01 EUMP2 =    -0.66333418602160D+03
 SCF Done:  E(RHF) =  -661.300938229     A.U. after   11 cycles
 E2 =    -0.2033250429D+01 EUMP2 =    -0.66333418865771D+03
 SCF Done:  E(RHF) =  -661.300880826     A.U. after   10 cycles
 E2 =    -0.2033308119D+01 EUMP2 =    -0.66333418894551D+03
 Optimization completed.
    -- Stationary point found.

                          Input orientation:
 ---------------------------------------------------------------------
 Center     Atomic      Atomic             Coordinates (Angstroms)
 Number     Number       Type             X           Y           Z
 ---------------------------------------------------------------------
      1          8           0       -3.539397   -1.399236   -0.305354
      2          7           0       -3.147394   -0.239205   -0.071924
      3          8           0       -3.916262    0.724937    0.109150
      4          6           0       -1.712053   -0.032429    0.007048
      5          6           0       -1.314004    1.257088    0.240865
      6          7           0       -0.065072    1.742965    0.312151
      7          6           0        1.204750    1.025916    0.361399
      8          1           0        1.815386    1.557938    1.106620
      9          6           0        1.949249    1.056149   -0.974019
     10          6           0        3.342265    0.442232   -0.806180
     11          6           0        3.275050   -0.967157   -0.214677
     12          6           0        2.459194   -0.994760    1.077924
     13          6           0        1.055247   -0.429569    0.843207
     14          1           0        0.488315   -0.413034    1.788778
     15          7           0        0.383898   -1.316716   -0.100671
     16          6           0       -0.868807   -1.147291   -0.373070
     17          1           0       -2.100958    1.996245    0.364351
     18          1           0       -0.006405    2.736772    0.502429
     19          1           0        1.365046    0.493184   -1.710452
     20          1           0        2.023356    2.089691   -1.335085
     21          1           0        3.858803    0.426706   -1.772654
     22          1           0        3.936847    1.088515   -0.144794
     23          1           0        2.801102   -1.643615   -0.933562
     24          1           0        4.287140   -1.345613   -0.029432
     25          1           0        2.360628   -2.021420    1.445241
     26          1           0        2.963302   -0.413131    1.862372
     27          1           0       -1.338215   -1.911152   -0.992659
 ---------------------------------------------------------------------

 Alpha  occ. eigenvalues --  -20.59231 -20.58898 -15.84719 -15.64141 -15.56099
 Alpha  occ. eigenvalues --  -11.35046 -11.29734 -11.29570 -11.28562 -11.27223
 Alpha  occ. eigenvalues --  -11.23742 -11.23204 -11.22734 -11.22145  -1.57110
 Alpha  occ. eigenvalues --   -1.36705  -1.30934  -1.23037  -1.14774  -1.09881
 Alpha  occ. eigenvalues --   -1.02866  -1.01421  -0.94454  -0.89745  -0.85581
 Alpha  occ. eigenvalues --   -0.82471  -0.78533  -0.77461  -0.75284  -0.71973
 Alpha  occ. eigenvalues --   -0.69761  -0.69422  -0.67731  -0.64943  -0.63724
 Alpha  occ. eigenvalues --   -0.62561  -0.60362  -0.57765  -0.57005  -0.54947
 Alpha  occ. eigenvalues --   -0.54753  -0.50894  -0.50088  -0.48644  -0.48111
 Alpha  occ. eigenvalues --   -0.47400  -0.46203  -0.46138  -0.43674  -0.41658
 Alpha  occ. eigenvalues --   -0.39795  -0.33815
 Alpha virt. eigenvalues --    0.07458   0.11843   0.17325   0.21730   0.24030
 Alpha virt. eigenvalues --    0.25578   0.27147   0.28684   0.29031   0.29597
 Alpha virt. eigenvalues --    0.30704   0.31711   0.32125   0.32663   0.33876

 Mulliken charges:
               1
     1  O   -0.467294
     2  N    0.490128
     3  O   -0.503775
     4  C    0.001516
     5  C    0.190915
     6  N   -0.779736
     7  C    0.062087
     8  H    0.180696
     9  C   -0.301604
    10  C   -0.326936
    11  C   -0.320739
    12  C   -0.307262
    13  C   -0.035042
    14  H    0.187922
    15  N   -0.513507
    16  C    0.121177
    17  H    0.294385
    18  H    0.403558
    19  H    0.189114
    20  H    0.160186
    21  H    0.174461
    22  H    0.149309
    23  H    0.197665
    24  H    0.165224
    25  H    0.188342
    26  H    0.150595
    27  H    0.248615
 Sum of Mulliken charges =  -0.00000

 Dipole moment (field-independent basis, Debye):
    X=              5.4774    Y=              4.7948    Z=              1.1346  Tot=              7.3675
 Quadrupole moment (field-independent basis, Debye-Ang):
   XX=           -106.2880   YY=            -79.1586   ZZ=            -81.6867
   XY=             -1.9013   XZ=              0.4862   YZ=              1.5320

 Normal termination of Gaussian 16 at Fri Jun 30 16:37:22 2023.
