 Gaussian 16, Revision C.02,
 Gaussian 16:  ES64L-G16RevC.02  7-Dec-2021

 ----------------------------------------------------------
 #MP2/6-31G* SCF=Tight Opt=(ModRedun, MaxCycle=100 ) NoSymm
 ----------------------------------------------------------

 --------
 MolName:
 --------
 Symbolic Z-matrix:
 Charge =  0 Multiplicity = 1

 SCF Done:  E(RHF) =  -661.280011556     A.U. after   16 cycles
 E2 =    -0.2038180633D+01 EUMP2 =    -0.66331819218831D+03
 SCF Done:  E(RHF) =  -661.297321582     A.U. after   14 cycles
 E2 =    -0.2033713655D+01 EUMP2 =    -0.66333103523711D+03
 SCF Done:  E(RHF) =  -661.296784542     A.U. after   15 cycles
 E2 =    -0.2034778416D+01 EUMP2 =    -0.66333156295732D+03
 SCF Done:  E(RHF) =  -661.288251712     A.U. after   17 cycles
 E2 =    -0.2036367364D+01 EUMP2 =    -0.66332461907686D+03
 SCF Done:  E(RHF) =  -661.297917180     A.U. after   14 cycles
 E2 =    -0.2035799049D+01 EUMP2 =    -0.66333371622958D+03
 SCF Done:  E(RHF) =  -661.298059033     A.U. after   13 cycles
 E2 =    -0.2035901638D+01 EUMP2 =    -0.66333396067176D+03
 SCF Done:  E(RHF) =  -661.298593963     A.U. after   12 cycles
 E2 =    -0.2035507363D+01 EUMP2 =    -0.66333410132581D+03
 SCF Done:  E(RHF) =  -661.298696307     A.U. after   12 cycles
 E2 =    -0.2035434753D+01 EUMP2 =    -0.66333413105943D+03
 SCF Done:  E(RHF) =  -661.298693692     A.U. after   11 cycles
 E2 =    -0.2035440443D+01 EUMP2 =    -0.66333413413522D+03
 SCF Done:  E(RHF) =  -661.298668654     A.U. after   10 cycles
 E2 =    -0.2035466417D+01 EUMP2 =    -0.66333413507101D+03
 Optimization completed.
    -- Stationary point found.

                          Input orientation:
 ---------------------------------------------------------------------
 Center     Atomic      Atomic             Coordinates (Angstroms)
 Number     Number       Type             X           Y           Z
 ---------------------------------------------------------------------
      1          8           0       -3.473995   -1.377549   -0.433522
      2          7           0       -3.093577   -0.222135   -0.161586
      3          8           0       -3.872020    0.736153    0.008580
      4          6           0       -1.660042   -0.013175   -0.026362
      5          6           0       -1.288020    1.264875    0.307930
      6          7           0       -0.047648    1.754995    0.454098
      7          6           0        1.203497    1.019335    0.353751
      8          1           0        1.885099    1.542953    1.041117
      9          6           0        1.871495    1.014071   -1.018075
     10          6           0        3.275345    0.416227   -0.852111
     11          6           0        3.245555   -0.966900   -0.193531
     12          6           0        2.465131   -0.963918    1.124640
     13          6           0        1.050087   -0.422276    0.882729
     14          1           0        0.461704   -0.396783    1.812375
     15          7           0        0.430957   -1.321911   -0.086660
     16          6           0       -0.810463   -1.128076   -0.403737
     17          1           0       -2.090363    1.979117    0.470923
     18          1           0        0.014599    2.731331    0.716209
     19          1           0        1.272138    0.423313   -1.718015
     20          1           0        1.930242    2.036997   -1.409904
     21          1           0        3.771269    0.357338   -1.827774
     22          1           0        3.876260    1.101670   -0.237810
     23          1           0        2.769462   -1.682937   -0.869800
     24          1           0        4.271165   -1.314310   -0.020420
     25          1           0        2.392146   -1.981793    1.521949
     26          1           0        2.976964   -0.351643    1.879673
     27          1           0       -1.265996   -1.870977   -1.057687
 ---------------------------------------------------------------------

 Alpha  occ. eigenvalues --  -20.59249 -20.58918 -15.84729 -15.64112 -15.56137
 Alpha  occ. eigenvalues --  -11.34993 -11.29550 -11.29504 -11.28712 -11.27035
 Alpha  occ. eigenvalues --  -11.23727 -11.23219 -11.22650 -11.22043  -1.57130
 Alpha  occ. eigenvalues --   -1.36722  -1.31019  -1.23103  -1.14621  -1.09758
 Alpha  occ. eigenvalues --   -1.02740  -1.01182  -0.94500  -0.89614  -0.85562
 Alpha  occ. eigenvalues --   -0.82422  -0.78676  -0.77368  -0.75101  -0.72065
 Alpha  occ. eigenvalues --   -0.69790  -0.69469  -0.67895  -0.64858  -0.63853
 Alpha  occ. eigenvalues --   -0.62170  -0.60186  -0.57641  -0.56946  -0.55212
 Alpha  occ. eigenvalues --   -0.54396  -0.50661  -0.50091  -0.48671  -0.48094
 Alpha  occ. eigenvalues --   -0.47350  -0.46087  -0.45933  -0.43685  -0.41738
 Alpha  occ. eigenvalues --   -0.39921  -0.33855
 Alpha virt. eigenvalues --    0.07452   0.11744   0.17301   0.21965   0.24191
 Alpha virt. eigenvalues --    0.25710   0.27099   0.28695   0.29019   0.29713
 Alpha virt. eigenvalues --    0.30669   0.31851   0.31999   0.32846   0.34019

 Mulliken charges:
               1
     1  O   -0.467145
     2  N    0.492460
     3  O   -0.504134
     4  C   -0.000643
     5  C    0.186403
     6  N   -0.780043
     7  C    0.057949
     8  H    0.179484
     9  C   -0.301500
    10  C   -0.328927
    11  C   -0.322307
    12  C   -0.306073
    13  C   -0.039762
    14  H    0.192245
    15  N   -0.508052
    16  C    0.118453
    17  H    0.296151
    18  H    0.406069
    19  H    0.191511
    20  H    0.162467
    21  H    0.174879
    22  H    0.149581
    23  H    0.202003
    24  H    0.163908
    25  H    0.185774
    26  H    0.150093
    27  H    0.249155
 Sum of Mulliken charges =  -0.00000

 Dipole moment (field-independent basis, Debye):
    X=              5.3492    Y=              4.7905    Z=              1.4105  Tot=              7.3180
 Quadrupole moment (field-independent basis, Debye-Ang):
   XX=           -105.9566   YY=            -79.3129   ZZ=            -81.3301
   XY=             -1.6020   XZ=             -0.7008   YZ=              2.1311

 Normal termination of Gaussian 16 at Fri Jun 30 17:02:59 2023.
