 Gaussian 16, Revision C.02,
 Gaussian 16:  ES64L-G16RevC.02  7-Dec-2021

 ----------------------------------------------------------
 #MP2/6-31G* SCF=Tight Opt=(ModRedun, MaxCycle=100 ) NoSymm
 ----------------------------------------------------------

 --------
 MolName:
 --------
 Symbolic Z-matrix:
 Charge =  0 Multiplicity = 1

 SCF Done:  E(RHF) =  -661.272577751     A.U. after   16 cycles
 E2 =    -0.2036334708D+01 EUMP2 =    -0.66330891245903D+03
 SCF Done:  E(RHF) =  -661.290876655     A.U. after   14 cycles
 E2 =    -0.2031582953D+01 EUMP2 =    -0.66332245960762D+03
 SCF Done:  E(RHF) =  -661.296110051     A.U. after   14 cycles
 E2 =    -0.2031520612D+01 EUMP2 =    -0.66332763066355D+03
 SCF Done:  E(RHF) =  -661.297252746     A.U. after   15 cycles
 E2 =    -0.2032506361D+01 EUMP2 =    -0.66332975910708D+03
 SCF Done:  E(RHF) =  -661.290113219     A.U. after   17 cycles
 E2 =    -0.2034376938D+01 EUMP2 =    -0.66332449015727D+03
 SCF Done:  E(RHF) =  -661.298287114     A.U. after   14 cycles
 E2 =    -0.2032658085D+01 EUMP2 =    -0.66333094519919D+03
 SCF Done:  E(RHF) =  -661.298898191     A.U. after   13 cycles
 E2 =    -0.2032163873D+01 EUMP2 =    -0.66333106206374D+03
 SCF Done:  E(RHF) =  -661.299131078     A.U. after   11 cycles
 E2 =    -0.2031949488D+01 EUMP2 =    -0.66333108056598D+03
 SCF Done:  E(RHF) =  -661.299107882     A.U. after    9 cycles
 E2 =    -0.2031975040D+01 EUMP2 =    -0.66333108292179D+03
 SCF Done:  E(RHF) =  -661.299098243     A.U. after    9 cycles
 E2 =    -0.2031984930D+01 EUMP2 =    -0.66333108317329D+03
 Optimization completed.
    -- Stationary point found.

                          Input orientation:
 ---------------------------------------------------------------------
 Center     Atomic      Atomic             Coordinates (Angstroms)
 Number     Number       Type             X           Y           Z
 ---------------------------------------------------------------------
      1          8           0       -3.601161   -1.409811   -0.147664
      2          7           0       -3.194113   -0.247480    0.045465
      3          8           0       -3.947736    0.724074    0.249710
      4          6           0       -1.758079   -0.046267    0.049631
      5          6           0       -1.337488    1.249139    0.174991
      6          7           0       -0.077898    1.716917    0.147645
      7          6           0        1.193935    1.022079    0.350092
      8          1           0        1.722941    1.557821    1.153434
      9          6           0        2.028081    1.096921   -0.933058
     10          6           0        3.412370    0.475892   -0.744264
     11          6           0        3.311662   -0.959072   -0.228174
     12          6           0        2.442280   -1.029874    1.024678
     13          6           0        1.049001   -0.445452    0.787878
     14          1           0        0.498280   -0.438538    1.745180
     15          7           0        0.332758   -1.322753   -0.131330
     16          6           0       -0.929897   -1.164879   -0.350085
     17          1           0       -2.108577    2.010351    0.262082
     18          1           0       -0.010925    2.724204    0.246937
     19          1           0        1.477469    0.563575   -1.716814
     20          1           0        2.116617    2.142574   -1.255459
     21          1           0        3.963606    0.508865   -1.690837
     22          1           0        3.984471    1.082728   -0.027903
     23          1           0        2.860809   -1.594769   -0.998723
     24          1           0        4.309623   -1.360727   -0.018279
     25          1           0        2.320095   -2.067515    1.351202
     26          1           0        2.925171   -0.484384    1.848019
     27          1           0       -1.422285   -1.938620   -0.939375
 ---------------------------------------------------------------------

 Alpha  occ. eigenvalues --  -20.59256 -20.58926 -15.84735 -15.64067 -15.56133
 Alpha  occ. eigenvalues --  -11.35097 -11.29918 -11.29597 -11.28509 -11.27362
 Alpha  occ. eigenvalues --  -11.23801 -11.23224 -11.22816 -11.22280  -1.57127
 Alpha  occ. eigenvalues --   -1.36731  -1.30830  -1.22999  -1.14877  -1.10002
 Alpha  occ. eigenvalues --   -1.02962  -1.01610  -0.94370  -0.89832  -0.85646
 Alpha  occ. eigenvalues --   -0.82504  -0.78349  -0.77571  -0.75353  -0.71870
 Alpha  occ. eigenvalues --   -0.69777  -0.69435  -0.67535  -0.65090  -0.63766
 Alpha  occ. eigenvalues --   -0.62822  -0.60486  -0.57900  -0.56858  -0.55148
 Alpha  occ. eigenvalues --   -0.54591  -0.51178  -0.50007  -0.48637  -0.48121
 Alpha  occ. eigenvalues --   -0.47472  -0.46336  -0.46249  -0.43688  -0.41611
 Alpha  occ. eigenvalues --   -0.39752  -0.33839
 Alpha virt. eigenvalues --    0.07355   0.11898   0.17399   0.21483   0.23859
 Alpha virt. eigenvalues --    0.25256   0.27082   0.28656   0.28962   0.29656
 Alpha virt. eigenvalues --    0.30752   0.31479   0.32263   0.32501   0.33699

 Mulliken charges:
               1
     1  O   -0.467177
     2  N    0.487684
     3  O   -0.502279
     4  C    0.004213
     5  C    0.192526
     6  N   -0.775928
     7  C    0.064983
     8  H    0.181609
     9  C   -0.303610
    10  C   -0.324833
    11  C   -0.319452
    12  C   -0.308376
    13  C   -0.032047
    14  H    0.184523
    15  N   -0.515229
    16  C    0.122347
    17  H    0.292125
    18  H    0.400509
    19  H    0.188058
    20  H    0.157616
    21  H    0.174289
    22  H    0.149608
    23  H    0.192647
    24  H    0.166659
    25  H    0.190749
    26  H    0.151082
    27  H    0.247705
 Sum of Mulliken charges =  -0.00000

 Dipole moment (field-independent basis, Debye):
    X=              5.5695    Y=              4.7695    Z=              0.7776  Tot=              7.3737
 Quadrupole moment (field-independent basis, Debye-Ang):
   XX=           -106.3940   YY=            -79.1543   ZZ=            -82.0951
   XY=             -2.1116   XZ=              1.9368   YZ=              0.7892

 Normal termination of Gaussian 16 at Fri Jun 30 17:28:57 2023.
