 Gaussian 16, Revision C.02,
 Gaussian 16:  ES64L-G16RevC.02  7-Dec-2021

 ----------------------------------------------------------
 #MP2/6-31G* SCF=Tight Opt=(ModRedun, MaxCycle=100 ) NoSymm
 ----------------------------------------------------------

 --------
 MolName:
 --------
 Symbolic Z-matrix:
 Charge =  0 Multiplicity = 1

 SCF Done:  E(RHF) =  -661.271851337     A.U. after   16 cycles
 E2 =    -0.2040873338D+01 EUMP2 =    -0.66331272467470D+03
 SCF Done:  E(RHF) =  -661.289977764     A.U. after   14 cycles
 E2 =    -0.2036608193D+01 EUMP2 =    -0.66332658595703D+03
 SCF Done:  E(RHF) =  -661.287627729     A.U. after   15 cycles
 E2 =    -0.2038111770D+01 EUMP2 =    -0.66332573949890D+03
 SCF Done:  E(RHF) =  -661.281542897     A.U. after   16 cycles
 E2 =    -0.2040615085D+01 EUMP2 =    -0.66332215798130D+03
 SCF Done:  E(RHF) =  -661.280290320     A.U. after   15 cycles
 E2 =    -0.2040518539D+01 EUMP2 =    -0.66332080885864D+03
 SCF Done:  E(RHF) =  -661.290048435     A.U. after   12 cycles
 E2 =    -0.2037325035D+01 EUMP2 =    -0.66332737347000D+03
 SCF Done:  E(RHF) =  -661.290194418     A.U. after   15 cycles
 E2 =    -0.2038754155D+01 EUMP2 =    -0.66332894857309D+03
 SCF Done:  E(RHF) =  -661.290447487     A.U. after   13 cycles
 E2 =    -0.2038761249D+01 EUMP2 =    -0.66332920873561D+03
 SCF Done:  E(RHF) =  -661.290941447     A.U. after   13 cycles
 E2 =    -0.2038423989D+01 EUMP2 =    -0.66332936543571D+03
 SCF Done:  E(RHF) =  -661.290893140     A.U. after   12 cycles
 E2 =    -0.2038516383D+01 EUMP2 =    -0.66332940952307D+03
 SCF Done:  E(RHF) =  -661.290854718     A.U. after   11 cycles
 E2 =    -0.2038563330D+01 EUMP2 =    -0.66332941804790D+03
 SCF Done:  E(RHF) =  -661.290846553     A.U. after    9 cycles
 E2 =    -0.2038571892D+01 EUMP2 =    -0.66332941844480D+03
 Optimization completed.
    -- Stationary point found.

                          Input orientation:
 ---------------------------------------------------------------------
 Center     Atomic      Atomic             Coordinates (Angstroms)
 Number     Number       Type             X           Y           Z
 ---------------------------------------------------------------------
      1          8           0       -3.408608   -1.348445   -0.533950
      2          7           0       -3.036298   -0.199998   -0.224394
      3          8           0       -3.821097    0.752409   -0.051683
      4          6           0       -1.603350    0.008779   -0.049893
      5          6           0       -1.258659    1.272355    0.373243
      6          7           0       -0.023606    1.758698    0.577211
      7          6           0        1.190421    1.002966    0.333525
      8          1           0        1.934114    1.509647    0.967608
      9          6           0        1.798446    0.972225   -1.062579
     10          6           0        3.215208    0.399190   -0.882324
     11          6           0        3.222003   -0.958607   -0.166501
     12          6           0        2.458169   -0.937597    1.165814
     13          6           0        1.031846   -0.424495    0.906699
     14          1           0        0.416484   -0.394629    1.815904
     15          7           0        0.474508   -1.339050   -0.088157
     16          6           0       -0.754760   -1.109524   -0.441585
     17          1           0       -2.076093    1.959921    0.571352
     18          1           0        0.053501    2.722997    0.875308
     19          1           0        1.199818    0.355922   -1.738376
     20          1           0        1.842363    1.986573   -1.477648
     21          1           0        3.704037    0.303467   -1.858854
     22          1           0        3.809253    1.122091   -0.306091
     23          1           0        2.761095   -1.711502   -0.810829
     24          1           0        4.259748   -1.269209    0.006347
     25          1           0        2.410985   -1.949236    1.583331
     26          1           0        2.965393   -0.299510    1.901863
     27          1           0       -1.205923   -1.823469   -1.129342
 ---------------------------------------------------------------------

 Alpha  occ. eigenvalues --  -20.59292 -20.58965 -15.84757 -15.64028 -15.56226
 Alpha  occ. eigenvalues --  -11.34970 -11.29557 -11.29246 -11.28947 -11.26826
 Alpha  occ. eigenvalues --  -11.23767 -11.23264 -11.22573 -11.21981  -1.57172
 Alpha  occ. eigenvalues --   -1.36763  -1.31102  -1.23214  -1.14410  -1.09636
 Alpha  occ. eigenvalues --   -1.02594  -1.00883  -0.94506  -0.89444  -0.85585
 Alpha  occ. eigenvalues --   -0.82348  -0.78786  -0.77305  -0.74854  -0.72146
 Alpha  occ. eigenvalues --   -0.69845  -0.69567  -0.67997  -0.64832  -0.64002
 Alpha  occ. eigenvalues --   -0.61826  -0.59944  -0.57549  -0.56696  -0.55423
 Alpha  occ. eigenvalues --   -0.54034  -0.50609  -0.49872  -0.48695  -0.48082
 Alpha  occ. eigenvalues --   -0.47326  -0.45962  -0.45632  -0.43706  -0.41839
 Alpha  occ. eigenvalues --   -0.40120  -0.33935
 Alpha virt. eigenvalues --    0.07377   0.11588   0.17323   0.22207   0.24316
 Alpha virt. eigenvalues --    0.25692   0.27017   0.28605   0.28902   0.29895
 Alpha virt. eigenvalues --    0.30671   0.31806   0.32129   0.32946   0.34131

 Mulliken charges:
               1
     1  O   -0.466769
     2  N    0.494485
     3  O   -0.503696
     4  C   -0.003412
     5  C    0.181172
     6  N   -0.777495
     7  C    0.050376
     8  H    0.178748
     9  C   -0.301585
    10  C   -0.330948
    11  C   -0.324083
    12  C   -0.305094
    13  C   -0.046061
    14  H    0.198053
    15  N   -0.499344
    16  C    0.114027
    17  H    0.297794
    18  H    0.408051
    19  H    0.194692
    20  H    0.164193
    21  H    0.175363
    22  H    0.150577
    23  H    0.205600
    24  H    0.162784
    25  H    0.183181
    26  H    0.149637
    27  H    0.249755
 Sum of Mulliken charges =  -0.00000

 Dipole moment (field-independent basis, Debye):
    X=              5.2053    Y=              4.7804    Z=              1.5743  Tot=              7.2405
 Quadrupole moment (field-independent basis, Debye-Ang):
   XX=           -105.5377   YY=            -79.4919   ZZ=            -81.0701
   XY=             -1.2411   XZ=             -1.5764   YZ=              2.4994

 Normal termination of Gaussian 16 at Fri Jun 30 18:00:49 2023.
