 Gaussian 16, Revision C.02,
 Gaussian 16:  ES64L-G16RevC.02  7-Dec-2021

 ----------------------------------------------------------
 #MP2/6-31G* SCF=Tight Opt=(ModRedun, MaxCycle=100 ) NoSymm
 ----------------------------------------------------------

 --------
 MolName:
 --------
 Symbolic Z-matrix:
 Charge =  0 Multiplicity = 1

 SCF Done:  E(RHF) =  -661.268707021     A.U. after   16 cycles
 E2 =    -0.2035907596D+01 EUMP2 =    -0.66330461461704D+03
 SCF Done:  E(RHF) =  -661.286757427     A.U. after   15 cycles
 E2 =    -0.2031159430D+01 EUMP2 =    -0.66331791685707D+03
 SCF Done:  E(RHF) =  -661.290867372     A.U. after   15 cycles
 E2 =    -0.2031195407D+01 EUMP2 =    -0.66332206277878D+03
 SCF Done:  E(RHF) =  -661.284384477     A.U. after   17 cycles
 E2 =    -0.2033590568D+01 EUMP2 =    -0.66331797504481D+03
 SCF Done:  E(RHF) =  -661.292926748     A.U. after   15 cycles
 E2 =    -0.2032733971D+01 EUMP2 =    -0.66332566071815D+03
 SCF Done:  E(RHF) =  -661.294084005     A.U. after   14 cycles
 E2 =    -0.2031955850D+01 EUMP2 =    -0.66332603985473D+03
 SCF Done:  E(RHF) =  -661.294666553     A.U. after   12 cycles
 E2 =    -0.2031429248D+01 EUMP2 =    -0.66332609580010D+03
 SCF Done:  E(RHF) =  -661.294675959     A.U. after   11 cycles
 E2 =    -0.2031428483D+01 EUMP2 =    -0.66332610444185D+03
 SCF Done:  E(RHF) =  -661.294653597     A.U. after   10 cycles
 E2 =    -0.2031452878D+01 EUMP2 =    -0.66332610647518D+03
 SCF Done:  E(RHF) =  -661.294635734     A.U. after    9 cycles
 E2 =    -0.2031471083D+01 EUMP2 =    -0.66332610681646D+03
 Optimization completed.
    -- Stationary point found.

                          Input orientation:
 ---------------------------------------------------------------------
 Center     Atomic      Atomic             Coordinates (Angstroms)
 Number     Number       Type             X           Y           Z
 ---------------------------------------------------------------------
      1          8           0       -3.650137   -1.410647    0.048096
      2          7           0       -3.227346   -0.246366    0.188441
      3          8           0       -3.959661    0.735047    0.420063
      4          6           0       -1.794670   -0.052968    0.094259
      5          6           0       -1.357811    1.240839    0.108085
      6          7           0       -0.088390    1.671077   -0.041214
      7          6           0        1.172331    1.010608    0.316955
      8          1           0        1.607096    1.551076    1.172781
      9          6           0        2.102285    1.135318   -0.896958
     10          6           0        3.478737    0.514940   -0.668965
     11          6           0        3.353607   -0.943052   -0.232223
     12          6           0        2.418226   -1.066864    0.965958
     13          6           0        1.034883   -0.466485    0.720155
     14          1           0        0.496525   -0.466178    1.685893
     15          7           0        0.279155   -1.337132   -0.174773
     16          6           0       -0.991302   -1.180984   -0.333645
     17          1           0       -2.112483    2.021339    0.170193
     18          1           0       -0.006416    2.683056   -0.037971
     19          1           0        1.602870    0.631790   -1.733339
     20          1           0        2.201777    2.193176   -1.175351
     21          1           0        4.075353    0.598455   -1.584271
     22          1           0        4.012305    1.083973    0.105742
     23          1           0        2.946537   -1.538645   -1.058315
     24          1           0        4.337123   -1.359361    0.013200
     25          1           0        2.276364   -2.116430    1.242142
     26          1           0        2.867708   -0.562853    1.833905
     27          1           0       -1.513667   -1.957738   -0.892844
 ---------------------------------------------------------------------

 Alpha  occ. eigenvalues --  -20.59378 -20.59055 -15.84820 -15.63794 -15.56255
 Alpha  occ. eigenvalues --  -11.35087 -11.30016 -11.29630 -11.28605 -11.27426
 Alpha  occ. eigenvalues --  -11.23866 -11.23265 -11.22879 -11.22420  -1.57229
 Alpha  occ. eigenvalues --   -1.36852  -1.30639  -1.22967  -1.14929  -1.10108
 Alpha  occ. eigenvalues --   -1.02992  -1.01734  -0.94259  -0.89878  -0.85732
 Alpha  occ. eigenvalues --   -0.82524  -0.78145  -0.77659  -0.75251  -0.71704
 Alpha  occ. eigenvalues --   -0.69882  -0.69526  -0.67337  -0.65299  -0.63998
 Alpha  occ. eigenvalues --   -0.62855  -0.60600  -0.57994  -0.56526  -0.55437
 Alpha  occ. eigenvalues --   -0.54255  -0.51417  -0.49927  -0.48692  -0.48108
 Alpha  occ. eigenvalues --   -0.47553  -0.46472  -0.46281  -0.43758  -0.41605
 Alpha  occ. eigenvalues --   -0.39771  -0.33992
 Alpha virt. eigenvalues --    0.07074   0.11912   0.17558   0.21206   0.23691
 Alpha virt. eigenvalues --    0.24768   0.26982   0.28582   0.28968   0.29893
 Alpha virt. eigenvalues --    0.30753   0.31108   0.31959   0.32808   0.33385

 Mulliken charges:
               1
     1  O   -0.466173
     2  N    0.485144
     3  O   -0.499290
     4  C    0.009558
     5  C    0.188798
     6  N   -0.768428
     7  C    0.066051
     8  H    0.181735
     9  C   -0.308558
    10  C   -0.322623
    11  C   -0.318432
    12  C   -0.309143
    13  C   -0.030164
    14  H    0.181729
    15  N   -0.512819
    16  C    0.122759
    17  H    0.289211
    18  H    0.396202
    19  H    0.188593
    20  H    0.155353
    21  H    0.174330
    22  H    0.150243
    23  H    0.187242
    24  H    0.168055
    25  H    0.192822
    26  H    0.151501
    27  H    0.246303
 Sum of Mulliken charges =  -0.00000

 Dipole moment (field-independent basis, Debye):
    X=              5.5739    Y=              4.6842    Z=              0.3699  Tot=              7.2902
 Quadrupole moment (field-independent basis, Debye-Ang):
   XX=           -106.0466   YY=            -79.3641   ZZ=            -82.5815
   XY=             -2.2138   XZ=              3.5799   YZ=              0.0299

 Normal termination of Gaussian 16 at Fri Jun 30 18:26:41 2023.
