 Gaussian 16, Revision C.02,
 Gaussian 16:  ES64L-G16RevC.02  7-Dec-2021

 ----------------------------------------------------------
 #MP2/6-31G* SCF=Tight Opt=(ModRedun, MaxCycle=100 ) NoSymm
 ----------------------------------------------------------

 --------
 MolName:
 --------
 Symbolic Z-matrix:
 Charge =  0 Multiplicity = 1

 SCF Done:  E(RHF) =  -661.255600301     A.U. after   16 cycles
 E2 =    -0.2044771313D+01 EUMP2 =    -0.66330037161378D+03
 SCF Done:  E(RHF) =  -661.275137126     A.U. after   14 cycles
 E2 =    -0.2040682073D+01 EUMP2 =    -0.66331581919872D+03
 SCF Done:  E(RHF) =  -661.272281342     A.U. after   15 cycles
 E2 =    -0.2042380173D+01 EUMP2 =    -0.66331466151461D+03
 SCF Done:  E(RHF) =  -661.267800160     A.U. after   16 cycles
 E2 =    -0.2044464745D+01 EUMP2 =    -0.66331226490446D+03
 SCF Done:  E(RHF) =  -661.266333442     A.U. after   15 cycles
 E2 =    -0.2044297552D+01 EUMP2 =    -0.66331063099424D+03
 SCF Done:  E(RHF) =  -661.275265667     A.U. after   11 cycles
 E2 =    -0.2041352055D+01 EUMP2 =    -0.66331661772214D+03
 SCF Done:  E(RHF) =  -661.275423285     A.U. after   15 cycles
 E2 =    -0.2042870334D+01 EUMP2 =    -0.66331829361945D+03
 SCF Done:  E(RHF) =  -661.275551867     A.U. after   13 cycles
 E2 =    -0.2042905405D+01 EUMP2 =    -0.66331845727182D+03
 SCF Done:  E(RHF) =  -661.276063419     A.U. after   13 cycles
 E2 =    -0.2042513655D+01 EUMP2 =    -0.66331857707352D+03
 SCF Done:  E(RHF) =  -661.276052836     A.U. after   12 cycles
 E2 =    -0.2042571695D+01 EUMP2 =    -0.66331862453107D+03
 SCF Done:  E(RHF) =  -661.276039567     A.U. after   12 cycles
 E2 =    -0.2042599208D+01 EUMP2 =    -0.66331863877430D+03
 SCF Done:  E(RHF) =  -661.275965341     A.U. after   10 cycles
 E2 =    -0.2042676122D+01 EUMP2 =    -0.66331864146257D+03
 SCF Done:  E(RHF) =  -661.275966382     A.U. after    9 cycles
 E2 =    -0.2042675717D+01 EUMP2 =    -0.66331864209902D+03
 Optimization completed.
    -- Stationary point found.

                          Input orientation:
 ---------------------------------------------------------------------
 Center     Atomic      Atomic             Coordinates (Angstroms)
 Number     Number       Type             X           Y           Z
 ---------------------------------------------------------------------
      1          8           0       -3.344872   -1.316227   -0.608035
      2          7           0       -2.978022   -0.176645   -0.261902
      3          8           0       -3.766774    0.770197   -0.079510
      4          6           0       -1.543692    0.029369   -0.059288
      5          6           0       -1.224465    1.278635    0.435136
      6          7           0        0.008790    1.754862    0.697208
      7          6           0        1.168289    0.978753    0.312377
      8          1           0        1.967447    1.458577    0.898647
      9          6           0        1.729265    0.933688   -1.101726
     10          6           0        3.160533    0.392365   -0.900654
     11          6           0        3.201796   -0.943416   -0.139401
     12          6           0        2.442002   -0.917038    1.200931
     13          6           0        1.003895   -0.436236    0.920733
     14          1           0        0.360040   -0.410725    1.807290
     15          7           0        0.515282   -1.367475   -0.096999
     16          6           0       -0.701692   -1.096653   -0.477610
     17          1           0       -2.055928    1.943618    0.650873
     18          1           0        0.105685    2.731008    0.947636
     19          1           0        1.141542    0.295427   -1.763933
     20          1           0        1.758332    1.941989   -1.532849
     21          1           0        3.650270    0.267916   -1.873830
     22          1           0        3.740080    1.148889   -0.354815
     23          1           0        2.767011   -1.728300   -0.761628
     24          1           0        4.249919   -1.214169    0.039759
     25          1           0        2.420516   -1.925279    1.629556
     26          1           0        2.936828   -0.258418    1.926791
     27          1           0       -1.155047   -1.773712   -1.199778
 ---------------------------------------------------------------------

 Alpha  occ. eigenvalues --  -20.59413 -20.59085 -15.84846 -15.63846 -15.56384
 Alpha  occ. eigenvalues --  -11.34986 -11.29647 -11.29317 -11.28942 -11.26625
 Alpha  occ. eigenvalues --  -11.23876 -11.23332 -11.22503 -11.21955  -1.57286
 Alpha  occ. eigenvalues --   -1.36879  -1.31126  -1.23389  -1.14160  -1.09538
 Alpha  occ. eigenvalues --   -1.02420  -1.00527  -0.94472  -0.89256  -0.85651
 Alpha  occ. eigenvalues --   -0.82227  -0.78838  -0.77291  -0.74562  -0.72149
 Alpha  occ. eigenvalues --   -0.69968  -0.69717  -0.68039  -0.64878  -0.64063
 Alpha  occ. eigenvalues --   -0.61578  -0.59712  -0.57551  -0.56252  -0.55414
 Alpha  occ. eigenvalues --   -0.53750  -0.50655  -0.49492  -0.48724  -0.48076
 Alpha  occ. eigenvalues --   -0.47373  -0.45865  -0.45182  -0.43773  -0.41982
 Alpha  occ. eigenvalues --   -0.40406  -0.34126
 Alpha virt. eigenvalues --    0.07155   0.11357   0.17498   0.22470   0.24313
 Alpha virt. eigenvalues --    0.25568   0.27003   0.28333   0.28786   0.30010
 Alpha virt. eigenvalues --    0.30680   0.31793   0.32293   0.33004   0.34206

 Mulliken charges:
               1
     1  O   -0.465628
     2  N    0.496066
     3  O   -0.502311
     4  C   -0.005501
     5  C    0.173842
     6  N   -0.769460
     7  C    0.034133
     8  H    0.179699
     9  C   -0.300973
    10  C   -0.333089
    11  C   -0.325756
    12  C   -0.304581
    13  C   -0.052926
    14  H    0.206365
    15  N   -0.487828
    16  C    0.109232
    17  H    0.299367
    18  H    0.407553
    19  H    0.197985
    20  H    0.164773
    21  H    0.175610
    22  H    0.152471
    23  H    0.208382
    24  H    0.161917
    25  H    0.180614
    26  H    0.149659
    27  H    0.250385
 Sum of Mulliken charges =  -0.00000

 Dipole moment (field-independent basis, Debye):
    X=              5.0255    Y=              4.7583    Z=              1.5349  Tot=              7.0889
 Quadrupole moment (field-independent basis, Debye-Ang):
   XX=           -105.0033   YY=            -79.5445   ZZ=            -81.1403
   XY=             -0.8537   XZ=             -2.1538   YZ=              2.3980

 Normal termination of Gaussian 16 at Fri Jun 30 19:03:05 2023.
