 Gaussian 16, Revision C.02,
 Gaussian 16:  ES64L-G16RevC.02  7-Dec-2021

 ----------------------------------------------------------
 #MP2/6-31G* SCF=Tight Opt=(ModRedun, MaxCycle=100 ) NoSymm
 ----------------------------------------------------------

 --------
 MolName:
 --------
 Symbolic Z-matrix:
 Charge =  0 Multiplicity = 1

 SCF Done:  E(RHF) =  -661.263941475     A.U. after   16 cycles
 E2 =    -0.2035764219D+01 EUMP2 =    -0.66329970569364D+03
 SCF Done:  E(RHF) =  -661.282049858     A.U. after   15 cycles
 E2 =    -0.2030989459D+01 EUMP2 =    -0.66331303931732D+03
 SCF Done:  E(RHF) =  -661.283739498     A.U. after   15 cycles
 E2 =    -0.2031340012D+01 EUMP2 =    -0.66331507951043D+03
 SCF Done:  E(RHF) =  -661.281539968     A.U. after   17 cycles
 E2 =    -0.2033382652D+01 EUMP2 =    -0.66331492261943D+03
 SCF Done:  E(RHF) =  -661.286540721     A.U. after   15 cycles
 E2 =    -0.2032915840D+01 EUMP2 =    -0.66331945656172D+03
 SCF Done:  E(RHF) =  -661.287632526     A.U. after   14 cycles
 E2 =    -0.2032293282D+01 EUMP2 =    -0.66331992580852D+03
 SCF Done:  E(RHF) =  -661.288306382     A.U. after   13 cycles
 E2 =    -0.2031767268D+01 EUMP2 =    -0.66332007365055D+03
 SCF Done:  E(RHF) =  -661.288466803     A.U. after   12 cycles
 E2 =    -0.2031629228D+01 EUMP2 =    -0.66332009603109D+03
 SCF Done:  E(RHF) =  -661.288483733     A.U. after   12 cycles
 E2 =    -0.2031620690D+01 EUMP2 =    -0.66332010442297D+03
 SCF Done:  E(RHF) =  -661.288471103     A.U. after   10 cycles
 E2 =    -0.2031634654D+01 EUMP2 =    -0.66332010575629D+03
 SCF Done:  E(RHF) =  -661.288461239     A.U. after   10 cycles
 E2 =    -0.2031645009D+01 EUMP2 =    -0.66332010624773D+03
 Optimization completed.
    -- Stationary point found.

                          Input orientation:
 ---------------------------------------------------------------------
 Center     Atomic      Atomic             Coordinates (Angstroms)
 Number     Number       Type             X           Y           Z
 ---------------------------------------------------------------------
      1          8           0       -3.681996   -1.395484    0.265820
      2          7           0       -3.243889   -0.230917    0.340919
      3          8           0       -3.947929    0.764701    0.595952
      4          6           0       -1.821520   -0.052438    0.136110
      5          6           0       -1.372974    1.231180    0.035904
      6          7           0       -0.097527    1.599437   -0.240480
      7          6           0        1.142011    0.992901    0.270668
      8          1           0        1.470358    1.542116    1.167942
      9          6           0        2.165356    1.173533   -0.859669
     10          6           0        3.533624    0.558837   -0.582561
     11          6           0        3.397569   -0.920062   -0.230049
     12          6           0        2.393169   -1.108463    0.900829
     13          6           0        1.018294   -0.492815    0.648251
     14          1           0        0.492600   -0.498151    1.621387
     15          7           0        0.224524   -1.356437   -0.223730
     16          6           0       -1.050980   -1.196733   -0.317484
     17          1           0       -2.108229    2.031783    0.082357
     18          1           0        0.003375    2.605889   -0.339556
     19          1           0        1.730567    0.702058   -1.749341
     20          1           0        2.270030    2.243488   -1.087834
     21          1           0        4.179556    0.696035   -1.456864
     22          1           0        4.016240    1.089861    0.250351
     23          1           0        3.050372   -1.473890   -1.111479
     24          1           0        4.366832   -1.343746    0.055524
     25          1           0        2.237429   -2.170662    1.114006
     26          1           0        2.802275   -0.655850    1.816098
     27          1           0       -1.607147   -1.971183   -0.847072
 ---------------------------------------------------------------------

 Alpha  occ. eigenvalues --  -20.59605 -20.59290 -15.84983 -15.63326 -15.56428
 Alpha  occ. eigenvalues --  -11.34982 -11.30013 -11.29661 -11.28846 -11.27415
 Alpha  occ. eigenvalues --  -11.23934 -11.23323 -11.22910 -11.22544  -1.57428
 Alpha  occ. eigenvalues --   -1.37078  -1.30370  -1.22903  -1.14928  -1.10185
 Alpha  occ. eigenvalues --   -1.02951  -1.01788  -0.94142  -0.89885  -0.85834
 Alpha  occ. eigenvalues --   -0.82527  -0.78075  -0.77595  -0.74966  -0.71440
 Alpha  occ. eigenvalues --   -0.70070  -0.69694  -0.67202  -0.65494  -0.64254
 Alpha  occ. eigenvalues --   -0.62784  -0.60720  -0.58015  -0.56125  -0.55627
 Alpha  occ. eigenvalues --   -0.53917  -0.51553  -0.49866  -0.48808  -0.48101
 Alpha  occ. eigenvalues --   -0.47593  -0.46574  -0.46252  -0.43891  -0.41622
 Alpha  occ. eigenvalues --   -0.39809  -0.34292
 Alpha virt. eigenvalues --    0.06640   0.11916   0.17825   0.20883   0.23516
 Alpha virt. eigenvalues --    0.24250   0.26923   0.28508   0.28911   0.30265
 Alpha virt. eigenvalues --    0.30455   0.30846   0.31669   0.32772   0.33480

 Mulliken charges:
               1
     1  O   -0.464050
     2  N    0.482659
     3  O   -0.494984
     4  C    0.017476
     5  C    0.181383
     6  N   -0.759258
     7  C    0.063817
     8  H    0.181287
     9  C   -0.316910
    10  C   -0.320342
    11  C   -0.317599
    12  C   -0.309706
    13  C   -0.027794
    14  H    0.179718
    15  N   -0.507029
    16  C    0.123090
    17  H    0.285853
    18  H    0.390634
    19  H    0.190325
    20  H    0.154067
    21  H    0.174518
    22  H    0.151022
    23  H    0.181829
    24  H    0.169254
    25  H    0.194598
    26  H    0.151835
    27  H    0.244308
 Sum of Mulliken charges =  -0.00000

 Dipole moment (field-independent basis, Debye):
    X=              5.4869    Y=              4.5315    Z=             -0.0461  Tot=              7.1164
 Quadrupole moment (field-independent basis, Debye-Ang):
   XX=           -105.1685   YY=            -79.7501   ZZ=            -83.1700
   XY=             -2.1377   XZ=              5.2122   YZ=             -0.7484

 Normal termination of Gaussian 16 at Fri Jun 30 19:32:33 2023.
