 Gaussian 16, Revision C.02,
 Gaussian 16:  ES64L-G16RevC.02  7-Dec-2021

 ---------------------------------------------------------
 #MP2/6-31G* SCF=Tight Opt=(ModRedun, MaxCycle=20 ) NoSymm
 ---------------------------------------------------------

 --------
 MolName:
 --------
 Symbolic Z-matrix:
 Charge =  0 Multiplicity = 1

 SCF Done:  E(RHF) =  -661.273897792     A.U. after   16 cycles
 E2 =    -0.2038184198D+01 EUMP2 =    -0.66331208198977D+03
 SCF Done:  E(RHF) =  -661.291055399     A.U. after   15 cycles
 E2 =    -0.2033766471D+01 EUMP2 =    -0.66332482186995D+03
 SCF Done:  E(RHF) =  -661.290337044     A.U. after   15 cycles
 E2 =    -0.2034979711D+01 EUMP2 =    -0.66332531675515D+03
 SCF Done:  E(RHF) =  -661.289021902     A.U. after   17 cycles
 E2 =    -0.2036823535D+01 EUMP2 =    -0.66332584543608D+03
 SCF Done:  E(RHF) =  -661.293637476     A.U. after   15 cycles
 E2 =    -0.2036373005D+01 EUMP2 =    -0.66333001048058D+03
 SCF Done:  E(RHF) =  -661.295222822     A.U. after   14 cycles
 E2 =    -0.2036002241D+01 EUMP2 =    -0.66333122506361D+03
 SCF Done:  E(RHF) =  -661.296005443     A.U. after   13 cycles
 E2 =    -0.2035439940D+01 EUMP2 =    -0.66333144538299D+03
 SCF Done:  E(RHF) =  -661.296038654     A.U. after   12 cycles
 E2 =    -0.2035428889D+01 EUMP2 =    -0.66333146754223D+03
 SCF Done:  E(RHF) =  -661.295980114     A.U. after   10 cycles
 E2 =    -0.2035488877D+01 EUMP2 =    -0.66333146899163D+03
 Optimization completed.
    -- Stationary point found.

                          Input orientation:
 ---------------------------------------------------------------------
 Center     Atomic      Atomic             Coordinates (Angstroms)
 Number     Number       Type             X           Y           Z
 ---------------------------------------------------------------------
      1          8           0       -3.462931   -1.455578   -0.219795
      2          7           0       -3.112537   -0.277415   -0.010716
      3          8           0       -3.907165    0.647486    0.243695
      4          6           0       -1.687944   -0.001590   -0.056735
      5          6           0       -1.310848    1.269624    0.277576
      6          7           0       -0.065120    1.784984    0.228461
      7          6           0        1.192412    1.037271    0.275862
      8          1           0        1.812609    1.571492    1.012390
      9          6           0        1.964809    1.024788   -1.041002
     10          6           0        3.349064    0.412272   -0.798382
     11          6           0        3.260325   -0.974851   -0.156434
     12          6           0        2.400101   -0.962687    1.109397
     13          6           0        1.009391   -0.398946    0.799451
     14          1           0        0.386953   -0.359079    1.708481
     15          7           0        0.398390   -1.293165   -0.182306
     16          6           0       -0.833649   -1.081354   -0.522492
     17          1           0       -2.076813    1.922619    0.687380
     18          1           0       -0.000772    2.730757    0.587662
     19          1           0        1.405315    0.443085   -1.780979
     20          1           0        2.055535    2.047868   -1.425896
     21          1           0        3.901910    0.357539   -1.743137
     22          1           0        3.920671    1.083228   -0.141311
     23          1           0        2.814337   -1.678055   -0.866619
     24          1           0        4.266493   -1.342294    0.077763
     25          1           0        2.286861   -1.978912    1.501593
     26          1           0        2.876845   -0.360086    1.894862
     27          1           0       -1.285210   -1.804990   -1.200777
 ---------------------------------------------------------------------

 Alpha  occ. eigenvalues --  -20.59401 -20.59074 -15.84818 -15.63580 -15.56683
 Alpha  occ. eigenvalues --  -11.34860 -11.29714 -11.29623 -11.28780 -11.27246
 Alpha  occ. eigenvalues --  -11.23509 -11.23130 -11.22810 -11.22121  -1.57247
 Alpha  occ. eigenvalues --   -1.36872  -1.30648  -1.23281  -1.14678  -1.09823
 Alpha  occ. eigenvalues --   -1.02738  -1.01243  -0.94449  -0.89644  -0.85419
 Alpha  occ. eigenvalues --   -0.82449  -0.78418  -0.77475  -0.75066  -0.71739
 Alpha  occ. eigenvalues --   -0.70025  -0.69483  -0.67802  -0.65018  -0.63660
 Alpha  occ. eigenvalues --   -0.62103  -0.60656  -0.57652  -0.57051  -0.55017
 Alpha  occ. eigenvalues --   -0.54446  -0.50757  -0.49825  -0.48704  -0.48112
 Alpha  occ. eigenvalues --   -0.47447  -0.46207  -0.45979  -0.43737  -0.41653
 Alpha  occ. eigenvalues --   -0.40318  -0.34246
 Alpha virt. eigenvalues --    0.07030   0.11692   0.17395   0.21786   0.24147
 Alpha virt. eigenvalues --    0.25464   0.26792   0.28502   0.29036   0.29662
 Alpha virt. eigenvalues --    0.30517   0.31822   0.31937   0.32645   0.34135

 Mulliken charges:
               1
     1  O   -0.466282
     2  N    0.488790
     3  O   -0.499832
     4  C    0.013890
     5  C    0.172990
     6  N   -0.764231
     7  C    0.052964
     8  H    0.177527
     9  C   -0.298100
    10  C   -0.328917
    11  C   -0.320801
    12  C   -0.307114
    13  C   -0.043716
    14  H    0.187058
    15  N   -0.492380
    16  C    0.118520
    17  H    0.288747
    18  H    0.398875
    19  H    0.189563
    20  H    0.164152
    21  H    0.174486
    22  H    0.148825
    23  H    0.199248
    24  H    0.164585
    25  H    0.187006
    26  H    0.150948
    27  H    0.243200
 Sum of Mulliken charges =  -0.00000

 Dipole moment (field-independent basis, Debye):
    X=              5.3019    Y=              4.6391    Z=              1.3042  Tot=              7.1647
 Quadrupole moment (field-independent basis, Debye-Ang):
   XX=           -105.6877   YY=            -80.2235   ZZ=            -80.9609
   XY=             -2.2673   XZ=              1.0716   YZ=              2.8156

 Normal termination of Gaussian 16 at Sun Jul  2 21:05:13 2023.
