 Gaussian 16, Revision C.02,
 Gaussian 16:  ES64L-G16RevC.02  7-Dec-2021

 ---------------------------------------------------------
 #MP2/6-31G* SCF=Tight Opt=(ModRedun, MaxCycle=20 ) NoSymm
 ---------------------------------------------------------

 --------
 MolName:
 --------
 Symbolic Z-matrix:
 Charge =  0 Multiplicity = 1

 SCF Done:  E(RHF) =  -661.279053538     A.U. after   16 cycles
 E2 =    -0.2037520887D+01 EUMP2 =    -0.66331657442453D+03
 SCF Done:  E(RHF) =  -661.296053263     A.U. after   15 cycles
 E2 =    -0.2033014536D+01 EUMP2 =    -0.66332906779922D+03
 SCF Done:  E(RHF) =  -661.295795779     A.U. after   15 cycles
 E2 =    -0.2034053016D+01 EUMP2 =    -0.66332984879469D+03
 SCF Done:  E(RHF) =  -661.290735345     A.U. after   17 cycles
 E2 =    -0.2036442792D+01 EUMP2 =    -0.66332717813699D+03
 SCF Done:  E(RHF) =  -661.297444300     A.U. after   14 cycles
 E2 =    -0.2035569008D+01 EUMP2 =    -0.66333301330724D+03
 SCF Done:  E(RHF) =  -661.298491412     A.U. after   14 cycles
 E2 =    -0.2035223763D+01 EUMP2 =    -0.66333371517585D+03
 SCF Done:  E(RHF) =  -661.299202992     A.U. after   12 cycles
 E2 =    -0.2034645893D+01 EUMP2 =    -0.66333384888457D+03
 SCF Done:  E(RHF) =  -661.299202954     A.U. after   11 cycles
 E2 =    -0.2034658873D+01 EUMP2 =    -0.66333386182762D+03
 SCF Done:  E(RHF) =  -661.299158322     A.U. after   10 cycles
 E2 =    -0.2034705478D+01 EUMP2 =    -0.66333386379930D+03
 SCF Done:  E(RHF) =  -661.299128675     A.U. after    8 cycles
 E2 =    -0.2034735278D+01 EUMP2 =    -0.66333386395293D+03
 Optimization completed.
    -- Stationary point found.

                          Input orientation:
 ---------------------------------------------------------------------
 Center     Atomic      Atomic             Coordinates (Angstroms)
 Number     Number       Type             X           Y           Z
 ---------------------------------------------------------------------
      1          8           0       -3.490202   -1.420696   -0.298744
      2          7           0       -3.119278   -0.253472   -0.065866
      3          8           0       -3.903559    0.690729    0.148775
      4          6           0       -1.686789   -0.014442   -0.032189
      5          6           0       -1.306448    1.263934    0.277915
      6          7           0       -0.060435    1.768230    0.306197
      7          6           0        1.199062    1.030379    0.316830
      8          1           0        1.833464    1.561914    1.042682
      9          6           0        1.937457    1.029421   -1.020058
     10          6           0        3.329465    0.420219   -0.816480
     11          6           0        3.261689   -0.971261   -0.181515
     12          6           0        2.433834   -0.970227    1.105566
     13          6           0        1.032814   -0.412368    0.831834
     14          1           0        0.433007   -0.381445    1.755910
     15          7           0        0.404192   -1.306944   -0.136394
     16          6           0       -0.836030   -1.111790   -0.453786
     17          1           0       -2.095131    1.958435    0.554325
     18          1           0       -0.001146    2.732516    0.611835
     19          1           0        1.360567    0.449349   -1.748039
     20          1           0        2.015343    2.054799   -1.401963
     21          1           0        3.858023    0.373678   -1.775483
     22          1           0        3.915088    1.089220   -0.169864
     23          1           0        2.799902   -1.671573   -0.884460
     24          1           0        4.274843   -1.336476    0.024353
     25          1           0        2.334989   -1.989203    1.494265
     26          1           0        2.927008   -0.369468    1.882249
     27          1           0       -1.292708   -1.851459   -1.110898
 ---------------------------------------------------------------------

 Alpha  occ. eigenvalues --  -20.59300 -20.58970 -15.84758 -15.63922 -15.56363
 Alpha  occ. eigenvalues --  -11.34947 -11.29626 -11.29614 -11.28678 -11.27186
 Alpha  occ. eigenvalues --  -11.23611 -11.23163 -11.22749 -11.22100  -1.57162
 Alpha  occ. eigenvalues --   -1.36771  -1.30851  -1.23171  -1.14687  -1.09818
 Alpha  occ. eigenvalues --   -1.02777  -1.01274  -0.94470  -0.89670  -0.85489
 Alpha  occ. eigenvalues --   -0.82453  -0.78534  -0.77433  -0.75162  -0.71925
 Alpha  occ. eigenvalues --   -0.69880  -0.69447  -0.67800  -0.64951  -0.63729
 Alpha  occ. eigenvalues --   -0.62198  -0.60452  -0.57693  -0.57043  -0.55051
 Alpha  occ. eigenvalues --   -0.54514  -0.50762  -0.49983  -0.48671  -0.48106
 Alpha  occ. eigenvalues --   -0.47403  -0.46158  -0.46028  -0.43699  -0.41662
 Alpha  occ. eigenvalues --   -0.40069  -0.34011
 Alpha virt. eigenvalues --    0.07312   0.11772   0.17319   0.21822   0.24156
 Alpha virt. eigenvalues --    0.25673   0.26941   0.28613   0.29039   0.29636
 Alpha virt. eigenvalues --    0.30639   0.31798   0.31968   0.32712   0.34060

 Mulliken charges:
               1
     1  O   -0.466842
     2  N    0.490083
     3  O   -0.502563
     4  C    0.005929
     5  C    0.181941
     6  N   -0.774010
     7  C    0.058077
     8  H    0.178683
     9  C   -0.299646
    10  C   -0.328415
    11  C   -0.321119
    12  C   -0.306968
    13  C   -0.040340
    14  H    0.188135
    15  N   -0.502633
    16  C    0.119848
    17  H    0.292694
    18  H    0.402805
    19  H    0.189910
    20  H    0.162916
    21  H    0.174540
    22  H    0.149014
    23  H    0.199662
    24  H    0.164527
    25  H    0.187060
    26  H    0.150578
    27  H    0.246136
 Sum of Mulliken charges =  -0.00000

 Dipole moment (field-independent basis, Debye):
    X=              5.3650    Y=              4.7373    Z=              1.3180  Tot=              7.2776
 Quadrupole moment (field-independent basis, Debye-Ang):
   XX=           -105.9938   YY=            -79.6744   ZZ=            -81.1950
   XY=             -2.0358   XZ=              0.4394   YZ=              2.3915

 Normal termination of Gaussian 16 at Sun Jul  2 20:44:44 2023.
