 Gaussian 16, Revision C.02,
 Gaussian 16:  ES64L-G16RevC.02  7-Dec-2021

 ---------------------------------------------------------
 #MP2/6-31G* SCF=Tight Opt=(ModRedun, MaxCycle=20 ) NoSymm
 ---------------------------------------------------------

 --------
 MolName:
 --------
 Symbolic Z-matrix:
 Charge =  0 Multiplicity = 1

 SCF Done:  E(RHF) =  -661.281843304     A.U. after   16 cycles
 E2 =    -0.2037177406D+01 EUMP2 =    -0.66331902070931D+03
 SCF Done:  E(RHF) =  -661.298795051     A.U. after   14 cycles
 E2 =    -0.2032659048D+01 EUMP2 =    -0.66333145409935D+03
 SCF Done:  E(RHF) =  -661.299354754     A.U. after   15 cycles
 E2 =    -0.2033496159D+01 EUMP2 =    -0.66333285091284D+03
 SCF Done:  E(RHF) =  -661.289084956     A.U. after   17 cycles
 E2 =    -0.2035727994D+01 EUMP2 =    -0.66332481295052D+03
 SCF Done:  E(RHF) =  -661.299626641     A.U. after   14 cycles
 E2 =    -0.2034760935D+01 EUMP2 =    -0.66333438757636D+03
 SCF Done:  E(RHF) =  -661.299836103     A.U. after   13 cycles
 E2 =    -0.2034737987D+01 EUMP2 =    -0.66333457409055D+03
 SCF Done:  E(RHF) =  -661.300409514     A.U. after   12 cycles
 E2 =    -0.2034228014D+01 EUMP2 =    -0.66333463752755D+03
 SCF Done:  E(RHF) =  -661.300393168     A.U. after   12 cycles
 E2 =    -0.2034255281D+01 EUMP2 =    -0.66333464844939D+03
 SCF Done:  E(RHF) =  -661.300375197     A.U. after   10 cycles
 E2 =    -0.2034274092D+01 EUMP2 =    -0.66333464928969D+03
 Optimization completed.
    -- Stationary point found.

                          Input orientation:
 ---------------------------------------------------------------------
 Center     Atomic      Atomic             Coordinates (Angstroms)
 Number     Number       Type             X           Y           Z
 ---------------------------------------------------------------------
      1          8           0       -3.505919   -1.390946   -0.371058
      2          7           0       -3.120979   -0.232667   -0.118142
      3          8           0       -3.895537    0.728188    0.055711
      4          6           0       -1.686784   -0.023833   -0.009176
      5          6           0       -1.301591    1.260676    0.275594
      6          7           0       -0.057311    1.750186    0.386239
      7          6           0        1.205557    1.023965    0.359191
      8          1           0        1.853291    1.553073    1.074475
      9          6           0        1.909064    1.035075   -0.996643
     10          6           0        3.307466    0.428476   -0.832577
     11          6           0        3.259511   -0.967637   -0.205974
     12          6           0        2.464494   -0.978255    1.101506
     13          6           0        1.054818   -0.424547    0.865183
     14          1           0        0.478379   -0.403189    1.803650
     15          7           0        0.408187   -1.317892   -0.090987
     16          6           0       -0.839125   -1.138001   -0.386187
     17          1           0       -2.096291    1.987665    0.419131
     18          1           0        0.001794    2.735457    0.614903
     19          1           0        1.314931    0.457650   -1.712904
     20          1           0        1.975020    2.063022   -1.374301
     21          1           0        3.811403    0.390391   -1.805098
     22          1           0        3.907237    1.094780   -0.196326
     23          1           0        2.781902   -1.664421   -0.901843
     24          1           0        4.278674   -1.331092   -0.028808
     25          1           0        2.379119   -2.000142    1.485433
     26          1           0        2.974436   -0.380361    1.869497
     27          1           0       -1.300744   -1.892649   -1.022520
 ---------------------------------------------------------------------

 Alpha  occ. eigenvalues --  -20.59236 -20.58905 -15.84722 -15.64136 -15.56109
 Alpha  occ. eigenvalues --  -11.35018 -11.29623 -11.29555 -11.28623 -11.27133
 Alpha  occ. eigenvalues --  -11.23728 -11.23208 -11.22691 -11.22089  -1.57117
 Alpha  occ. eigenvalues --   -1.36713  -1.30976  -1.23065  -1.14704  -1.09820
 Alpha  occ. eigenvalues --   -1.02805  -1.01308  -0.94482  -0.89684  -0.85566
 Alpha  occ. eigenvalues --   -0.82448  -0.78608  -0.77411  -0.75202  -0.72019
 Alpha  occ. eigenvalues --   -0.69773  -0.69440  -0.67820  -0.64891  -0.63777
 Alpha  occ. eigenvalues --   -0.62367  -0.60281  -0.57700  -0.57001  -0.55076
 Alpha  occ. eigenvalues --   -0.54583  -0.50762  -0.50108  -0.48656  -0.48102
 Alpha  occ. eigenvalues --   -0.47374  -0.46146  -0.46044  -0.43680  -0.41696
 Alpha  occ. eigenvalues --   -0.39847  -0.33829
 Alpha virt. eigenvalues --    0.07464   0.11802   0.17308   0.21849   0.24114
 Alpha virt. eigenvalues --    0.25665   0.27135   0.28694   0.29045   0.29635
 Alpha virt. eigenvalues --    0.30683   0.31799   0.32036   0.32767   0.33951

 Mulliken charges:
               1
     1  O   -0.467285
     2  N    0.491389
     3  O   -0.504109
     4  C    0.000458
     5  C    0.188935
     6  N   -0.780314
     7  C    0.060277
     8  H    0.180065
     9  C   -0.301429
    10  C   -0.327949
    11  C   -0.321485
    12  C   -0.306658
    13  C   -0.037179
    14  H    0.189954
    15  N   -0.511195
    16  C    0.120002
    17  H    0.295269
    18  H    0.404866
    19  H    0.190198
    20  H    0.161367
    21  H    0.174651
    22  H    0.149365
    23  H    0.199930
    24  H    0.164542
    25  H    0.187067
    26  H    0.150342
    27  H    0.248925
 Sum of Mulliken charges =  -0.00000

 Dipole moment (field-independent basis, Debye):
    X=              5.4149    Y=              4.7974    Z=              1.2812  Tot=              7.3470
 Quadrupole moment (field-independent basis, Debye-Ang):
   XX=           -106.1316   YY=            -79.2247   ZZ=            -81.5019
   XY=             -1.7691   XZ=             -0.1348   YZ=              1.8528

 Normal termination of Gaussian 16 at Sun Jul  2 19:44:25 2023.
