 Gaussian 16, Revision C.02,
 Gaussian 16:  ES64L-G16RevC.02  7-Dec-2021

 ---------------------------------------------------------
 #MP2/6-31G* SCF=Tight Opt=(ModRedun, MaxCycle=20 ) NoSymm
 ---------------------------------------------------------

 --------
 MolName:
 --------
 Symbolic Z-matrix:
 Charge =  0 Multiplicity = 1

 SCF Done:  E(RHF) =  -661.281929976     A.U. after   16 cycles
 E2 =    -0.2037154568D+01 EUMP2 =    -0.66331908454427D+03
 SCF Done:  E(RHF) =  -661.298942958     A.U. after   14 cycles
 E2 =    -0.2032740441D+01 EUMP2 =    -0.66333168339855D+03
 SCF Done:  E(RHF) =  -661.299839311     A.U. after   14 cycles
 E2 =    -0.2033465300D+01 EUMP2 =    -0.66333330461018D+03
 SCF Done:  E(RHF) =  -661.295243932     A.U. after   15 cycles
 E2 =    -0.2035039888D+01 EUMP2 =    -0.66333028382016D+03
 SCF Done:  E(RHF) =  -661.297787020     A.U. after   14 cycles
 E2 =    -0.2035317682D+01 EUMP2 =    -0.66333310470193D+03
 SCF Done:  E(RHF) =  -661.299446021     A.U. after   10 cycles
 E2 =    -0.2034286153D+01 EUMP2 =    -0.66333373217370D+03
 SCF Done:  E(RHF) =  -661.299342066     A.U. after   12 cycles
 E2 =    -0.2034516388D+01 EUMP2 =    -0.66333385845390D+03
 SCF Done:  E(RHF) =  -661.299619725     A.U. after   11 cycles
 E2 =    -0.2034255743D+01 EUMP2 =    -0.66333387546749D+03
 SCF Done:  E(RHF) =  -661.299696359     A.U. after   11 cycles
 E2 =    -0.2034182226D+01 EUMP2 =    -0.66333387858558D+03
 SCF Done:  E(RHF) =  -661.299672727     A.U. after   10 cycles
 E2 =    -0.2034206248D+01 EUMP2 =    -0.66333387897527D+03
 Optimization completed.
    -- Stationary point found.

                          Input orientation:
 ---------------------------------------------------------------------
 Center     Atomic      Atomic             Coordinates (Angstroms)
 Number     Number       Type             X           Y           Z
 ---------------------------------------------------------------------
      1          8           0       -3.514354   -1.364467   -0.442161
      2          7           0       -3.118898   -0.213510   -0.173406
      3          8           0       -3.883034    0.762388   -0.041719
      4          6           0       -1.687250   -0.029911    0.008234
      5          6           0       -1.295768    1.258598    0.269917
      6          7           0       -0.056210    1.731669    0.467234
      7          6           0        1.211475    1.017962    0.402770
      8          1           0        1.871265    1.544749    1.108129
      9          6           0        1.879857    1.041599   -0.970381
     10          6           0        3.283311    0.437134   -0.845606
     11          6           0        3.253941   -0.963818   -0.228596
     12          6           0        2.491717   -0.986689    1.098011
     13          6           0        1.075007   -0.435713    0.899067
     14          1           0        0.521410   -0.424842    1.850594
     15          7           0        0.410866   -1.326473   -0.046918
     16          6           0       -0.842472   -1.161052   -0.321749
     17          1           0       -2.080233    2.010292    0.282475
     18          1           0        0.006762    2.732873    0.612080
     19          1           0        1.268847    0.467458   -1.675254
     20          1           0        1.934641    2.072322   -1.342842
     21          1           0        3.762841    0.407740   -1.830717
     22          1           0        3.896983    1.100237   -0.219404
     23          1           0        2.760687   -1.656607   -0.917645
     24          1           0        4.278119   -1.325979   -0.079993
     25          1           0        2.418713   -2.011778    1.475768
     26          1           0        3.018397   -0.392638    1.857657
     27          1           0       -1.307631   -1.929536   -0.938565
 ---------------------------------------------------------------------

 Alpha  occ. eigenvalues --  -20.59238 -20.58903 -15.84733 -15.64196 -15.55950
 Alpha  occ. eigenvalues --  -11.35072 -11.29608 -11.29561 -11.28657 -11.27095
 Alpha  occ. eigenvalues --  -11.23849 -11.23261 -11.22645 -11.22092  -1.57127
 Alpha  occ. eigenvalues --   -1.36712  -1.31003  -1.22982  -1.14728  -1.09833
 Alpha  occ. eigenvalues --   -1.02814  -1.01341  -0.94477  -0.89697  -0.85635
 Alpha  occ. eigenvalues --   -0.82437  -0.78620  -0.77411  -0.75190  -0.72009
 Alpha  occ. eigenvalues --   -0.69719  -0.69470  -0.67855  -0.64844  -0.63812
 Alpha  occ. eigenvalues --   -0.62581  -0.60158  -0.57645  -0.56957  -0.55106
 Alpha  occ. eigenvalues --   -0.54637  -0.50755  -0.50210  -0.48680  -0.48112
 Alpha  occ. eigenvalues --   -0.47373  -0.46205  -0.46006  -0.43690  -0.41765
 Alpha  occ. eigenvalues --   -0.39668  -0.33739
 Alpha virt. eigenvalues --    0.07447   0.11755   0.17336   0.21870   0.24038
 Alpha virt. eigenvalues --    0.25533   0.27300   0.28698   0.29054   0.29671
 Alpha virt. eigenvalues --    0.30667   0.31810   0.32139   0.32790   0.33845

 Mulliken charges:
               1
     1  O   -0.467286
     2  N    0.492292
     3  O   -0.503973
     4  C   -0.001476
     5  C    0.191364
     6  N   -0.778867
     7  C    0.056810
     8  H    0.181727
     9  C   -0.303319
    10  C   -0.327495
    11  C   -0.321917
    12  C   -0.306200
    13  C   -0.034190
    14  H    0.192261
    15  N   -0.517562
    16  C    0.119096
    17  H    0.296374
    18  H    0.404141
    19  H    0.190306
    20  H    0.159911
    21  H    0.174799
    22  H    0.149848
    23  H    0.200036
    24  H    0.164633
    25  H    0.186993
    26  H    0.150251
    27  H    0.251445
 Sum of Mulliken charges =  -0.00000

 Dipole moment (field-independent basis, Debye):
    X=              5.4421    Y=              4.7840    Z=              1.2240  Tot=              7.3486
 Quadrupole moment (field-independent basis, Debye-Ang):
   XX=           -106.0921   YY=            -78.9854   ZZ=            -81.8443
   XY=             -1.4552   XZ=             -0.6922   YZ=              1.2670

 Normal termination of Gaussian 16 at Sun Jul  2 20:06:03 2023.
