 Gaussian 16, Revision C.02,
 Gaussian 16:  ES64L-G16RevC.02  7-Dec-2021

 ---------------------------------------------------------
 #MP2/6-31G* SCF=Tight Opt=(ModRedun, MaxCycle=20 ) NoSymm
 ---------------------------------------------------------

 --------
 MolName:
 --------
 Symbolic Z-matrix:
 Charge =  0 Multiplicity = 1

 SCF Done:  E(RHF) =  -661.276702222     A.U. after   16 cycles
 E2 =    -0.2037722734D+01 EUMP2 =    -0.66331442495650D+03
 SCF Done:  E(RHF) =  -661.294820895     A.U. after   15 cycles
 E2 =    -0.2033575747D+01 EUMP2 =    -0.66332839664197D+03
 SCF Done:  E(RHF) =  -661.296484187     A.U. after   15 cycles
 E2 =    -0.2034194884D+01 EUMP2 =    -0.66333067907115D+03
 SCF Done:  E(RHF) =  -661.284660972     A.U. after   17 cycles
 E2 =    -0.2037134712D+01 EUMP2 =    -0.66332179568416D+03
 SCF Done:  E(RHF) =  -661.296062360     A.U. after   14 cycles
 E2 =    -0.2035333773D+01 EUMP2 =    -0.66333139613231D+03
 SCF Done:  E(RHF) =  -661.296677683     A.U. after   12 cycles
 E2 =    -0.2034868890D+01 EUMP2 =    -0.66333154657346D+03
 SCF Done:  E(RHF) =  -661.297025253     A.U. after   11 cycles
 E2 =    -0.2034532760D+01 EUMP2 =    -0.66333155801340D+03
 SCF Done:  E(RHF) =  -661.297047119     A.U. after   10 cycles
 E2 =    -0.2034512705D+01 EUMP2 =    -0.66333155982451D+03
 Optimization completed.
    -- Stationary point found.

                          Input orientation:
 ---------------------------------------------------------------------
 Center     Atomic      Atomic             Coordinates (Angstroms)
 Number     Number       Type             X           Y           Z
 ---------------------------------------------------------------------
      1          8           0       -3.514336   -1.341066   -0.512094
      2          7           0       -3.112259   -0.195615   -0.230742
      3          8           0       -3.864906    0.794053   -0.144798
      4          6           0       -1.687408   -0.032890    0.022986
      5          6           0       -1.288725    1.257325    0.265567
      6          7           0       -0.056770    1.713220    0.546986
      7          6           0        1.216891    1.012791    0.444667
      8          1           0        1.887757    1.538331    1.139660
      9          6           0        1.849248    1.048017   -0.944566
     10          6           0        3.256677    0.445681   -0.859097
     11          6           0        3.245604   -0.959629   -0.251363
     12          6           0        2.516997   -0.994188    1.093776
     13          6           0        1.094493   -0.445143    0.932904
     14          1           0        0.564064   -0.443978    1.896693
     15          7           0        0.412156   -1.333100   -0.002535
     16          6           0       -0.846752   -1.181518   -0.256962
     17          1           0       -2.047194    2.026440    0.148905
     18          1           0        0.012610    2.722469    0.621925
     19          1           0        1.221484    0.477029   -1.637426
     20          1           0        1.893030    2.081287   -1.311851
     21          1           0        3.711518    0.424320   -1.856063
     22          1           0        3.884232    1.105860   -0.243749
     23          1           0        2.736767   -1.648807   -0.932767
     24          1           0        4.274026   -1.320349   -0.131564
     25          1           0        2.456023   -2.022237    1.465386
     26          1           0        3.060839   -0.403951    1.844236
     27          1           0       -1.316089   -1.964361   -0.852113
 ---------------------------------------------------------------------

 Alpha  occ. eigenvalues --  -20.59303 -20.58967 -15.84791 -15.64103 -15.55871
 Alpha  occ. eigenvalues --  -11.35103 -11.29615 -11.29581 -11.28766 -11.27066
 Alpha  occ. eigenvalues --  -11.23955 -11.23313 -11.22608 -11.22102  -1.57197
 Alpha  occ. eigenvalues --   -1.36777  -1.30931  -1.22918  -1.14758  -1.09855
 Alpha  occ. eigenvalues --   -1.02798  -1.01361  -0.94461  -0.89710  -0.85681
 Alpha  occ. eigenvalues --   -0.82426  -0.78575  -0.77424  -0.75125  -0.71906
 Alpha  occ. eigenvalues --   -0.69726  -0.69542  -0.67896  -0.64802  -0.63841
 Alpha  occ. eigenvalues --   -0.62819  -0.60071  -0.57522  -0.56921  -0.55161
 Alpha  occ. eigenvalues --   -0.54654  -0.50741  -0.50281  -0.48744  -0.48133
 Alpha  occ. eigenvalues --   -0.47401  -0.46290  -0.45953  -0.43736  -0.41854
 Alpha  occ. eigenvalues --   -0.39517  -0.33736
 Alpha virt. eigenvalues --    0.07254   0.11632   0.17382   0.21885   0.23953
 Alpha virt. eigenvalues --    0.25392   0.27396   0.28650   0.29053   0.29707
 Alpha virt. eigenvalues --    0.30640   0.31822   0.32263   0.32783   0.33774

 Mulliken charges:
               1
     1  O   -0.466976
     2  N    0.493133
     3  O   -0.502471
     4  C    0.000122
     5  C    0.189154
     6  N   -0.770506
     7  C    0.048419
     8  H    0.183409
     9  C   -0.305117
    10  C   -0.327109
    11  C   -0.322372
    12  C   -0.305648
    13  C   -0.031304
    14  H    0.194628
    15  N   -0.521593
    16  C    0.116843
    17  H    0.296087
    18  H    0.401013
    19  H    0.190206
    20  H    0.158919
    21  H    0.174977
    22  H    0.150384
    23  H    0.199933
    24  H    0.164789
    25  H    0.186831
    26  H    0.150188
    27  H    0.254061
 Sum of Mulliken charges =  -0.00000

 Dipole moment (field-independent basis, Debye):
    X=              5.4383    Y=              4.6995    Z=              1.1864  Tot=              7.2848
 Quadrupole moment (field-independent basis, Debye-Ang):
   XX=           -105.8483   YY=            -78.9661   ZZ=            -82.1833
   XY=             -1.0944   XZ=             -1.2703   YZ=              0.7486

 Normal termination of Gaussian 16 at Sun Jul  2 20:23:39 2023.
