 Gaussian 16, Revision C.02,
 Gaussian 16:  ES64L-G16RevC.02  7-Dec-2021

 ---------------------------------------------------------
 #MP2/6-31G* SCF=Tight Opt=(ModRedun, MaxCycle=20 ) NoSymm
 ---------------------------------------------------------

 --------
 MolName:
 --------
 Symbolic Z-matrix:
 Charge =  0 Multiplicity = 1

 SCF Done:  E(RHF) =  -661.272144601     A.U. after   16 cycles
 E2 =    -0.2038419878D+01 EUMP2 =    -0.66331056447873D+03
 SCF Done:  E(RHF) =  -661.289360064     A.U. after   15 cycles
 E2 =    -0.2034033897D+01 EUMP2 =    -0.66332339396083D+03
 SCF Done:  E(RHF) =  -661.288611434     A.U. after   15 cycles
 E2 =    -0.2035287881D+01 EUMP2 =    -0.66332389931506D+03
 SCF Done:  E(RHF) =  -661.287922101     A.U. after   17 cycles
 E2 =    -0.2037045317D+01 EUMP2 =    -0.66332496741772D+03
 SCF Done:  E(RHF) =  -661.292315118     A.U. after   15 cycles
 E2 =    -0.2036634441D+01 EUMP2 =    -0.66332894955850D+03
 SCF Done:  E(RHF) =  -661.294007273     A.U. after   14 cycles
 E2 =    -0.2036262865D+01 EUMP2 =    -0.66333027013801D+03
 SCF Done:  E(RHF) =  -661.294801512     A.U. after   13 cycles
 E2 =    -0.2035706359D+01 EUMP2 =    -0.66333050787082D+03
 SCF Done:  E(RHF) =  -661.294836500     A.U. after   12 cycles
 E2 =    -0.2035695049D+01 EUMP2 =    -0.66333053154862D+03
 SCF Done:  E(RHF) =  -661.294776895     A.U. after   10 cycles
 E2 =    -0.2035756275D+01 EUMP2 =    -0.66333053317003D+03
 SCF Done:  E(RHF) =  -661.294763454     A.U. after   10 cycles
 E2 =    -0.2035770238D+01 EUMP2 =    -0.66333053369254D+03
 Optimization completed.
    -- Stationary point found.

                          Input orientation:
 ---------------------------------------------------------------------
 Center     Atomic      Atomic             Coordinates (Angstroms)
 Number     Number       Type             X           Y           Z
 ---------------------------------------------------------------------
      1          8           0       -3.453603   -1.466784   -0.191291
      2          7           0       -3.109659   -0.285231    0.010049
      3          8           0       -3.906834    0.634390    0.275115
      4          6           0       -1.688302    0.001550   -0.059764
      5          6           0       -1.311811    1.270846    0.279891
      6          7           0       -0.066668    1.788766    0.208434
      7          6           0        1.190622    1.039211    0.264144
      8          1           0        1.807657    1.574540    1.002644
      9          6           0        1.970229    1.023510   -1.048143
     10          6           0        3.352738    0.410616   -0.796736
     11          6           0        3.259539   -0.975153   -0.152493
     12          6           0        2.392423   -0.960084    1.108614
     13          6           0        1.004063   -0.394954    0.790869
     14          1           0        0.376933   -0.352678    1.696591
     15          7           0        0.396629   -1.289712   -0.193339
     16          6           0       -0.833664   -1.073686   -0.537933
     17          1           0       -2.068213    1.910796    0.726506
     18          1           0       -0.000269    2.730977    0.576838
     19          1           0        1.414515    0.440936   -1.790257
     20          1           0        2.063575    2.045854   -1.434329
     21          1           0        3.910804    0.353542   -1.738282
     22          1           0        3.921221    1.082476   -0.137862
     23          1           0        2.817054   -1.679443   -0.863795
     24          1           0        4.264116   -1.342887    0.088036
     25          1           0        2.275958   -1.975631    1.501743
     26          1           0        2.865745   -0.356990    1.895757
     27          1           0       -1.283779   -1.791777   -1.222998
 ---------------------------------------------------------------------

 Alpha  occ. eigenvalues --  -20.59435 -20.59109 -15.84837 -15.63465 -15.56782
 Alpha  occ. eigenvalues --  -11.34829 -11.29749 -11.29619 -11.28816 -11.27263
 Alpha  occ. eigenvalues --  -11.23484 -11.23123 -11.22827 -11.22128  -1.57265
 Alpha  occ. eigenvalues --   -1.36899  -1.30585  -1.23310  -1.14675  -1.09823
 Alpha  occ. eigenvalues --   -1.02728  -1.01233  -0.94443  -0.89634  -0.85402
 Alpha  occ. eigenvalues --   -0.82446  -0.78383  -0.77489  -0.75032  -0.71673
 Alpha  occ. eigenvalues --   -0.70065  -0.69493  -0.67805  -0.65040  -0.63636
 Alpha  occ. eigenvalues --   -0.62094  -0.60717  -0.57641  -0.57043  -0.55007
 Alpha  occ. eigenvalues --   -0.54427  -0.50756  -0.49774  -0.48711  -0.48111
 Alpha  occ. eigenvalues --   -0.47459  -0.46222  -0.45962  -0.43749  -0.41650
 Alpha  occ. eigenvalues --   -0.40395  -0.34316
 Alpha virt. eigenvalues --    0.06936   0.11662   0.17431   0.21772   0.24127
 Alpha virt. eigenvalues --    0.25372   0.26763   0.28476   0.29031   0.29671
 Alpha virt. eigenvalues --    0.30469   0.31831   0.31934   0.32627   0.34146

 Mulliken charges:
               1
     1  O   -0.466085
     2  N    0.488477
     3  O   -0.498890
     4  C    0.016245
     5  C    0.170391
     6  N   -0.761594
     7  C    0.051562
     8  H    0.177225
     9  C   -0.297728
    10  C   -0.329048
    11  C   -0.320731
    12  C   -0.307114
    13  C   -0.044766
    14  H    0.186903
    15  N   -0.489396
    16  C    0.118205
    17  H    0.287498
    18  H    0.397635
    19  H    0.189441
    20  H    0.164426
    21  H    0.174478
    22  H    0.148799
    23  H    0.199102
    24  H    0.164610
    25  H    0.186983
    26  H    0.151077
    27  H    0.242294
 Sum of Mulliken charges =  -0.00000

 Dipole moment (field-independent basis, Debye):
    X=              5.2837    Y=              4.6103    Z=              1.2836  Tot=              7.1288
 Quadrupole moment (field-independent basis, Debye-Ang):
   XX=           -105.5777   YY=            -80.3825   ZZ=            -80.9118
   XY=             -2.3241   XZ=              1.2837   YZ=              2.9196

 Normal termination of Gaussian 16 at Sat Jul  1 04:34:04 2023.
