 Gaussian 16, Revision C.02,
 Gaussian 16:  ES64L-G16RevC.02  7-Dec-2021

 ----------------------------------------------------------
 #MP2/6-31G* SCF=Tight Opt=(ModRedun, MaxCycle=100 ) NoSymm
 ----------------------------------------------------------

 --------
 MolName:
 --------
 Symbolic Z-matrix:
 Charge =  0 Multiplicity = 1

 SCF Done:  E(RHF) =  -661.300338541     A.U. after   16 cycles
 E2 =    -0.2034310740D+01 EUMP2 =    -0.66333464928113D+03
 SCF Done:  E(RHF) =  -661.300354195     A.U. after    9 cycles
 E2 =    -0.2034295170D+01 EUMP2 =    -0.66333464936543D+03
 SCF Done:  E(RHF) =  -661.300360263     A.U. after    9 cycles
 E2 =    -0.2034288566D+01 EUMP2 =    -0.66333464882862D+03
 SCF Done:  E(RHF) =  -661.300361123     A.U. after    9 cycles
 E2 =    -0.2034288260D+01 EUMP2 =    -0.66333464938266D+03
 Optimization completed.
    -- Stationary point found.

                          Input orientation:
 ---------------------------------------------------------------------
 Center     Atomic      Atomic             Coordinates (Angstroms)
 Number     Number       Type             X           Y           Z
 ---------------------------------------------------------------------
      1          8           0       -3.506842   -1.391132   -0.368184
      2          7           0       -3.121211   -0.232892   -0.116232
      3          8           0       -3.895519    0.728045    0.057872
      4          6           0       -1.686748   -0.024137   -0.008365
      5          6           0       -1.301537    1.260507    0.275957
      6          7           0       -0.057290    1.750271    0.386090
      7          6           0        1.205634    1.024239    0.358601
      8          1           0        1.853759    1.553515    1.073509
      9          6           0        1.908498    1.034965   -0.997597
     10          6           0        3.307038    0.428538   -0.834059
     11          6           0        3.259508   -0.967372   -0.207006
     12          6           0        2.465184   -0.977668    1.100880
     13          6           0        1.055298   -0.424193    0.865044
     14          1           0        0.479216   -0.402684    1.803792
     15          7           0        0.408316   -1.318040   -0.090548
     16          6           0       -0.839246   -1.138510   -0.385258
     17          1           0       -2.096355    1.987403    0.419758
     18          1           0        0.001648    2.735538    0.614894
     19          1           0        1.313932    0.457230   -1.713358
     20          1           0        1.974159    2.062798   -1.375764
     21          1           0        3.810582    0.390224   -1.806843
     22          1           0        3.907099    1.095142   -0.198294
     23          1           0        2.781539   -1.664451   -0.902438
     24          1           0        4.278825   -1.330788   -0.030310
     25          1           0        2.380033   -1.999524    1.485103
     26          1           0        2.975520   -0.379566    1.868534
     27          1           0       -1.300997   -1.893678   -1.020888
 ---------------------------------------------------------------------

 Alpha  occ. eigenvalues --  -20.59236 -20.58904 -15.84722 -15.64136 -15.56112
 Alpha  occ. eigenvalues --  -11.35019 -11.29624 -11.29560 -11.28628 -11.27135
 Alpha  occ. eigenvalues --  -11.23730 -11.23210 -11.22693 -11.22091  -1.57120
 Alpha  occ. eigenvalues --   -1.36712  -1.30975  -1.23062  -1.14702  -1.09818
 Alpha  occ. eigenvalues --   -1.02804  -1.01307  -0.94480  -0.89683  -0.85565
 Alpha  occ. eigenvalues --   -0.82447  -0.78608  -0.77410  -0.75202  -0.72020
 Alpha  occ. eigenvalues --   -0.69772  -0.69439  -0.67819  -0.64891  -0.63776
 Alpha  occ. eigenvalues --   -0.62366  -0.60280  -0.57700  -0.57000  -0.55076
 Alpha  occ. eigenvalues --   -0.54581  -0.50761  -0.50107  -0.48656  -0.48102
 Alpha  occ. eigenvalues --   -0.47372  -0.46146  -0.46044  -0.43678  -0.41696
 Alpha  occ. eigenvalues --   -0.39847  -0.33829
 Alpha virt. eigenvalues --    0.07465   0.11800   0.17307   0.21847   0.24112
 Alpha virt. eigenvalues --    0.25664   0.27133   0.28693   0.29043   0.29634
 Alpha virt. eigenvalues --    0.30682   0.31796   0.32035   0.32765   0.33949

 Mulliken charges:
               1
     1  O   -0.467262
     2  N    0.491360
     3  O   -0.504059
     4  C    0.000445
     5  C    0.188874
     6  N   -0.780300
     7  C    0.060281
     8  H    0.180065
     9  C   -0.301433
    10  C   -0.327930
    11  C   -0.321482
    12  C   -0.306655
    13  C   -0.037175
    14  H    0.189955
    15  N   -0.511224
    16  C    0.120021
    17  H    0.295302
    18  H    0.404875
    19  H    0.190179
    20  H    0.161377
    21  H    0.174646
    22  H    0.149356
    23  H    0.199929
    24  H    0.164536
    25  H    0.187062
    26  H    0.150344
    27  H    0.248911
 Sum of Mulliken charges =  -0.00000

 Dipole moment (field-independent basis, Debye):
    X=              5.4155    Y=              4.7973    Z=              1.2768  Tot=              7.3465
 Quadrupole moment (field-independent basis, Debye-Ang):
   XX=           -106.1381   YY=            -79.2255   ZZ=            -81.5019
   XY=             -1.7701   XZ=             -0.1175   YZ=              1.8578

 Normal termination of Gaussian 16 at Fri Jun 30 00:07:04 2023.
