 Gaussian 16, Revision C.02,
 Gaussian 16:  ES64L-G16RevC.02  7-Dec-2021

 ---------------------------------------------------------
 #MP2/6-31G* SCF=Tight Opt=(ModRedun, MaxCycle=20 ) NoSymm
 ---------------------------------------------------------

 --------
 MolName:
 --------
 Symbolic Z-matrix:
 Charge =  0 Multiplicity = 1

 SCF Done:  E(RHF) =  -661.277233295     A.U. after   16 cycles
 E2 =    -0.2037620806D+01 EUMP2 =    -0.66331485410039D+03
 SCF Done:  E(RHF) =  -661.294483412     A.U. after   15 cycles
 E2 =    -0.2033438591D+01 EUMP2 =    -0.66332792200240D+03
 SCF Done:  E(RHF) =  -661.291203209     A.U. after   15 cycles
 E2 =    -0.2034979098D+01 EUMP2 =    -0.66332618230711D+03
 SCF Done:  E(RHF) =  -661.287522825     A.U. after   16 cycles
 E2 =    -0.2036772203D+01 EUMP2 =    -0.66332429502773D+03
 SCF Done:  E(RHF) =  -661.285365269     A.U. after   16 cycles
 E2 =    -0.2036896576D+01 EUMP2 =    -0.66332226184475D+03
 SCF Done:  E(RHF) =  -661.294715949     A.U. after   12 cycles
 E2 =    -0.2034039760D+01 EUMP2 =    -0.66332875570926D+03
 SCF Done:  E(RHF) =  -661.295399229     A.U. after   14 cycles
 E2 =    -0.2035394933D+01 EUMP2 =    -0.66333079416256D+03
 SCF Done:  E(RHF) =  -661.295866415     A.U. after   13 cycles
 E2 =    -0.2035402618D+01 EUMP2 =    -0.66333126903220D+03
 SCF Done:  E(RHF) =  -661.296258110     A.U. after   13 cycles
 E2 =    -0.2035173296D+01 EUMP2 =    -0.66333143140637D+03
 SCF Done:  E(RHF) =  -661.296120127     A.U. after   12 cycles
 E2 =    -0.2035333495D+01 EUMP2 =    -0.66333145362183D+03
 SCF Done:  E(RHF) =  -661.296149923     A.U. after   11 cycles
 E2 =    -0.2035309904D+01 EUMP2 =    -0.66333145982742D+03
 SCF Done:  E(RHF) =  -661.296152222     A.U. after    9 cycles
 E2 =    -0.2035307792D+01 EUMP2 =    -0.66333146001393D+03
 Optimization completed.
    -- Stationary point found.

                          Input orientation:
 ---------------------------------------------------------------------
 Center     Atomic      Atomic             Coordinates (Angstroms)
 Number     Number       Type             X           Y           Z
 ---------------------------------------------------------------------
      1          8           0       -3.524753   -1.356203   -0.401531
      2          7           0       -3.106548   -0.191946   -0.251727
      3          8           0       -3.851121    0.807537   -0.227974
      4          6           0       -1.667786   -0.010676   -0.106171
      5          6           0       -1.289567    1.245094    0.301629
      6          7           0       -0.051320    1.742415    0.448714
      7          6           0        1.219354    1.031171    0.387782
      8          1           0        1.877176    1.557688    1.094428
      9          6           0        1.888790    1.049150   -0.984132
     10          6           0        3.289268    0.438723   -0.854335
     11          6           0        3.251460   -0.960403   -0.233573
     12          6           0        2.485636   -0.975442    1.091076
     13          6           0        1.071044   -0.421065    0.879455
     14          1           0        0.507267   -0.408304    1.824313
     15          7           0        0.412627   -1.331655   -0.050899
     16          6           0       -0.843628   -1.177113   -0.333088
     17          1           0       -2.089158    1.964976    0.453000
     18          1           0       -0.011114    2.699737    0.778433
     19          1           0        1.275790    0.473108   -1.686047
     20          1           0        1.945788    2.077786   -1.360491
     21          1           0        3.770763    0.404054   -1.838326
     22          1           0        3.904831    1.100744   -0.228857
     23          1           0        2.754991   -1.652736   -0.921223
     24          1           0        4.273122   -1.328586   -0.082552
     25          1           0        2.407819   -1.998480    1.472803
     26          1           0        3.011228   -0.378714    1.849491
     27          1           0       -1.352966   -2.038868   -0.763179
 ---------------------------------------------------------------------

 Alpha  occ. eigenvalues --  -20.59351 -20.59039 -15.84793 -15.64182 -15.55768
 Alpha  occ. eigenvalues --  -11.35075 -11.29574 -11.29557 -11.28733 -11.27088
 Alpha  occ. eigenvalues --  -11.23724 -11.23186 -11.22582 -11.22050  -1.57212
 Alpha  occ. eigenvalues --   -1.36805  -1.30948  -1.22815  -1.14705  -1.09792
 Alpha  occ. eigenvalues --   -1.02756  -1.01261  -0.94495  -0.89698  -0.85463
 Alpha  occ. eigenvalues --   -0.82478  -0.78696  -0.77387  -0.75216  -0.72079
 Alpha  occ. eigenvalues --   -0.69851  -0.69432  -0.67750  -0.64685  -0.63940
 Alpha  occ. eigenvalues --   -0.62219  -0.60285  -0.57774  -0.56719  -0.55132
 Alpha  occ. eigenvalues --   -0.54638  -0.50605  -0.50248  -0.48828  -0.48099
 Alpha  occ. eigenvalues --   -0.47432  -0.46251  -0.45793  -0.43752  -0.42050
 Alpha  occ. eigenvalues --   -0.39155  -0.33615
 Alpha virt. eigenvalues --    0.07366   0.11346   0.17195   0.21884   0.24407
 Alpha virt. eigenvalues --    0.26290   0.26766   0.28572   0.29303   0.29393
 Alpha virt. eigenvalues --    0.30913   0.31777   0.32143   0.32839   0.33988

 Mulliken charges:
               1
     1  O   -0.467972
     2  N    0.490994
     3  O   -0.499921
     4  C    0.008040
     5  C    0.180750
     6  N   -0.776013
     7  C    0.058627
     8  H    0.181039
     9  C   -0.301974
    10  C   -0.327892
    11  C   -0.322766
    12  C   -0.305516
    13  C   -0.036396
    14  H    0.188631
    15  N   -0.523715
    16  C    0.115704
    17  H    0.296793
    18  H    0.404529
    19  H    0.190337
    20  H    0.164131
    21  H    0.174906
    22  H    0.149392
    23  H    0.200061
    24  H    0.164693
    25  H    0.187393
    26  H    0.148707
    27  H    0.257441
 Sum of Mulliken charges =  -0.00000

 Dipole moment (field-independent basis, Debye):
    X=              5.2877    Y=              4.6163    Z=              1.8903  Tot=              7.2694
 Quadrupole moment (field-independent basis, Debye-Ang):
   XX=           -105.6049   YY=            -79.5276   ZZ=            -81.4124
   XY=             -0.9764   XZ=             -2.0146   YZ=              2.9322

 Normal termination of Gaussian 16 at Sun Jul  2 12:35:41 2023.
