 Gaussian 16, Revision C.02,
 Gaussian 16:  ES64L-G16RevC.02  7-Dec-2021

 ---------------------------------------------------------
 #MP2/6-31G* SCF=Tight Opt=(ModRedun, MaxCycle=20 ) NoSymm
 ---------------------------------------------------------

 --------
 MolName:
 --------
 Symbolic Z-matrix:
 Charge =  0 Multiplicity = 1

 SCF Done:  E(RHF) =  -661.281090638     A.U. after   16 cycles
 E2 =    -0.2037231344D+01 EUMP2 =    -0.66331832198199D+03
 SCF Done:  E(RHF) =  -661.297863826     A.U. after   15 cycles
 E2 =    -0.2032796801D+01 EUMP2 =    -0.66333066062754D+03
 SCF Done:  E(RHF) =  -661.294506475     A.U. after   16 cycles
 E2 =    -0.2034254323D+01 EUMP2 =    -0.66332876079777D+03
 SCF Done:  E(RHF) =  -661.291347307     A.U. after   16 cycles
 E2 =    -0.2036113505D+01 EUMP2 =    -0.66332746081193D+03
 SCF Done:  E(RHF) =  -661.289102002     A.U. after   15 cycles
 E2 =    -0.2036317962D+01 EUMP2 =    -0.66332541996324D+03
 SCF Done:  E(RHF) =  -661.297971587     A.U. after   12 cycles
 E2 =    -0.2033457878D+01 EUMP2 =    -0.66333142946511D+03
 SCF Done:  E(RHF) =  -661.298432559     A.U. after   15 cycles
 E2 =    -0.2034865215D+01 EUMP2 =    -0.66333329777348D+03
 SCF Done:  E(RHF) =  -661.298913371     A.U. after   13 cycles
 E2 =    -0.2034788257D+01 EUMP2 =    -0.66333370162818D+03
 SCF Done:  E(RHF) =  -661.299341222     A.U. after   12 cycles
 E2 =    -0.2034480634D+01 EUMP2 =    -0.66333382185529D+03
 SCF Done:  E(RHF) =  -661.299223908     A.U. after   11 cycles
 E2 =    -0.2034616979D+01 EUMP2 =    -0.66333384088654D+03
 SCF Done:  E(RHF) =  -661.299235687     A.U. after   10 cycles
 E2 =    -0.2034609411D+01 EUMP2 =    -0.66333384509798D+03
 Optimization completed.
    -- Stationary point found.

                          Input orientation:
 ---------------------------------------------------------------------
 Center     Atomic      Atomic             Coordinates (Angstroms)
 Number     Number       Type             X           Y           Z
 ---------------------------------------------------------------------
      1          8           0       -3.516211   -1.375162   -0.385544
      2          7           0       -3.116476   -0.211950   -0.184749
      3          8           0       -3.878456    0.769323   -0.085178
      4          6           0       -1.679803   -0.016456   -0.058760
      5          6           0       -1.294967    1.253904    0.288364
      6          7           0       -0.053377    1.747011    0.416825
      7          6           0        1.213240    1.028291    0.373134
      8          1           0        1.866256    1.556140    1.083883
      9          6           0        1.900061    1.041986   -0.990746
     10          6           0        3.299215    0.432748   -0.843214
     11          6           0        3.255511   -0.964621   -0.219018
     12          6           0        2.474712   -0.976565    1.096930
     13          6           0        1.062910   -0.421948    0.872155
     14          1           0        0.492477   -0.404151    1.813682
     15          7           0        0.410316   -1.323565   -0.070975
     16          6           0       -0.841247   -1.156949   -0.361123
     17          1           0       -2.091394    1.977787    0.437432
     18          1           0       -0.003852    2.719011    0.698716
     19          1           0        1.296317    0.465312   -1.699837
     20          1           0        1.962166    2.070116   -1.368117
     21          1           0        3.792170    0.395755   -1.821415
     22          1           0        3.907103    1.096848   -0.212403
     23          1           0        2.768264   -1.659205   -0.910674
     24          1           0        4.275812   -1.330843   -0.054538
     25          1           0        2.392570   -1.998832    1.480188
     26          1           0        2.992451   -0.379094    1.860077
     27          1           0       -1.326770   -1.971911   -0.897115
 ---------------------------------------------------------------------

 Alpha  occ. eigenvalues --  -20.59302 -20.58978 -15.84778 -15.64158 -15.55949
 Alpha  occ. eigenvalues --  -11.35033 -11.29588 -11.29549 -11.28691 -11.27100
 Alpha  occ. eigenvalues --  -11.23722 -11.23195 -11.22635 -11.22067  -1.57183
 Alpha  occ. eigenvalues --   -1.36773  -1.30961  -1.22943  -1.14706  -1.09808
 Alpha  occ. eigenvalues --   -1.02782  -1.01287  -0.94500  -0.89707  -0.85514
 Alpha  occ. eigenvalues --   -0.82469  -0.78662  -0.77403  -0.75216  -0.72057
 Alpha  occ. eigenvalues --   -0.69821  -0.69441  -0.67794  -0.64788  -0.63865
 Alpha  occ. eigenvalues --   -0.62288  -0.60267  -0.57736  -0.56861  -0.55092
 Alpha  occ. eigenvalues --   -0.54614  -0.50646  -0.50222  -0.48747  -0.48110
 Alpha  occ. eigenvalues --   -0.47407  -0.46184  -0.45933  -0.43729  -0.41874
 Alpha  occ. eigenvalues --   -0.39524  -0.33724
 Alpha virt. eigenvalues --    0.07404   0.11581   0.17245   0.21876   0.24311
 Alpha virt. eigenvalues --    0.26149   0.26949   0.28692   0.29171   0.29535
 Alpha virt. eigenvalues --    0.30731   0.31777   0.32071   0.32804   0.33984

 Mulliken charges:
               1
     1  O   -0.467432
     2  N    0.491679
     3  O   -0.503053
     4  C    0.003889
     5  C    0.185232
     6  N   -0.778912
     7  C    0.059734
     8  H    0.180462
     9  C   -0.301649
    10  C   -0.327933
    11  C   -0.322142
    12  C   -0.306095
    13  C   -0.036603
    14  H    0.189113
    15  N   -0.517282
    16  C    0.118271
    17  H    0.296303
    18  H    0.404745
    19  H    0.190190
    20  H    0.162782
    21  H    0.174767
    22  H    0.149354
    23  H    0.200038
    24  H    0.164602
    25  H    0.187194
    26  H    0.149519
    27  H    0.253229
 Sum of Mulliken charges =  -0.00000

 Dipole moment (field-independent basis, Debye):
    X=              5.3551    Y=              4.7063    Z=              1.5867  Tot=              7.3037
 Quadrupole moment (field-independent basis, Debye-Ang):
   XX=           -105.9108   YY=            -79.3637   ZZ=            -81.4323
   XY=             -1.3586   XZ=             -1.0666   YZ=              2.4210

 Normal termination of Gaussian 16 at Sun Jul  2 12:10:47 2023.
