 Gaussian 16, Revision C.02,
 Gaussian 16:  ES64L-G16RevC.02  7-Dec-2021

 ---------------------------------------------------------
 #MP2/6-31G* SCF=Tight Opt=(ModRedun, MaxCycle=20 ) NoSymm
 ---------------------------------------------------------

 --------
 MolName:
 --------
 Symbolic Z-matrix:
 Charge =  0 Multiplicity = 1

 SCF Done:  E(RHF) =  -661.280814683     A.U. after   16 cycles
 E2 =    -0.2037307001D+01 EUMP2 =    -0.66331812168340D+03
 SCF Done:  E(RHF) =  -661.298040016     A.U. after   15 cycles
 E2 =    -0.2032680589D+01 EUMP2 =    -0.66333072060471D+03
 SCF Done:  E(RHF) =  -661.298346052     A.U. after   15 cycles
 E2 =    -0.2033535500D+01 EUMP2 =    -0.66333188155276D+03
 SCF Done:  E(RHF) =  -661.290548105     A.U. after   17 cycles
 E2 =    -0.2036245774D+01 EUMP2 =    -0.66332679387958D+03
 SCF Done:  E(RHF) =  -661.299094058     A.U. after   14 cycles
 E2 =    -0.2035109188D+01 EUMP2 =    -0.66333420324592D+03
 SCF Done:  E(RHF) =  -661.299851866     A.U. after   13 cycles
 E2 =    -0.2034687731D+01 EUMP2 =    -0.66333453959674D+03
 SCF Done:  E(RHF) =  -661.300474997     A.U. after   12 cycles
 E2 =    -0.2034151532D+01 EUMP2 =    -0.66333462652970D+03
 SCF Done:  E(RHF) =  -661.300528430     A.U. after   11 cycles
 E2 =    -0.2034117382D+01 EUMP2 =    -0.66333464581226D+03
 SCF Done:  E(RHF) =  -661.300433183     A.U. after   11 cycles
 E2 =    -0.2034215847D+01 EUMP2 =    -0.66333464903005D+03
 SCF Done:  E(RHF) =  -661.300358494     A.U. after    9 cycles
 E2 =    -0.2034290893D+01 EUMP2 =    -0.66333464938707D+03
 Optimization completed.
    -- Stationary point found.

                          Input orientation:
 ---------------------------------------------------------------------
 Center     Atomic      Atomic             Coordinates (Angstroms)
 Number     Number       Type             X           Y           Z
 ---------------------------------------------------------------------
      1          8           0       -3.506863   -1.390225   -0.371183
      2          7           0       -3.121137   -0.232124   -0.118647
      3          8           0       -3.895415    0.728907    0.055466
      4          6           0       -1.686645   -0.023716   -0.009703
      5          6           0       -1.301375    1.260755    0.275276
      6          7           0       -0.057111    1.750261    0.386248
      7          6           0        1.205667    1.024016    0.359270
      8          1           0        1.853440    1.552982    1.074637
      9          6           0        1.909125    1.034994   -0.996574
     10          6           0        3.307482    0.428299   -0.832490
     11          6           0        3.259464   -0.967772   -0.205820
     12          6           0        2.464497   -0.978297    1.101657
     13          6           0        1.054787   -0.424567    0.865202
     14          1           0        0.478271   -0.403157    1.803643
     15          7           0        0.408226   -1.317970   -0.090913
     16          6           0       -0.839131   -1.138150   -0.386281
     17          1           0       -2.096138    1.987686    0.418783
     18          1           0        0.001832    2.735451    0.615350
     19          1           0        1.314835    0.457490   -1.712689
     20          1           0        1.975132    2.062897   -1.374391
     21          1           0        3.811417    0.390127   -1.805037
     22          1           0        3.907307    1.094632   -0.196280
     23          1           0        2.781735   -1.664580   -0.901623
     24          1           0        4.278624   -1.331317   -0.028680
     25          1           0        2.379044   -2.000211    1.485563
     26          1           0        2.974482   -0.380418    1.869653
     27          1           0       -1.300542   -1.893004   -1.022436
 ---------------------------------------------------------------------

 Alpha  occ. eigenvalues --  -20.59237 -20.58904 -15.84723 -15.64136 -15.56112
 Alpha  occ. eigenvalues --  -11.35018 -11.29622 -11.29559 -11.28628 -11.27134
 Alpha  occ. eigenvalues --  -11.23728 -11.23208 -11.22692 -11.22089  -1.57116
 Alpha  occ. eigenvalues --   -1.36710  -1.30977  -1.23065  -1.14702  -1.09818
 Alpha  occ. eigenvalues --   -1.02805  -1.01307  -0.94481  -0.89685  -0.85565
 Alpha  occ. eigenvalues --   -0.82448  -0.78609  -0.77411  -0.75202  -0.72020
 Alpha  occ. eigenvalues --   -0.69771  -0.69438  -0.67820  -0.64892  -0.63777
 Alpha  occ. eigenvalues --   -0.62367  -0.60282  -0.57700  -0.57001  -0.55077
 Alpha  occ. eigenvalues --   -0.54582  -0.50761  -0.50108  -0.48656  -0.48102
 Alpha  occ. eigenvalues --   -0.47372  -0.46146  -0.46044  -0.43678  -0.41695
 Alpha  occ. eigenvalues --   -0.39848  -0.33829
 Alpha virt. eigenvalues --    0.07465   0.11799   0.17307   0.21848   0.24113
 Alpha virt. eigenvalues --    0.25664   0.27134   0.28694   0.29044   0.29635
 Alpha virt. eigenvalues --    0.30682   0.31798   0.32036   0.32767   0.33950

 Mulliken charges:
               1
     1  O   -0.467226
     2  N    0.491311
     3  O   -0.504054
     4  C    0.000449
     5  C    0.188870
     6  N   -0.780289
     7  C    0.060258
     8  H    0.180075
     9  C   -0.301426
    10  C   -0.327940
    11  C   -0.321489
    12  C   -0.306651
    13  C   -0.037185
    14  H    0.189952
    15  N   -0.511213
    16  C    0.120024
    17  H    0.295303
    18  H    0.404873
    19  H    0.190185
    20  H    0.161382
    21  H    0.174645
    22  H    0.149360
    23  H    0.199933
    24  H    0.164540
    25  H    0.187061
    26  H    0.150345
    27  H    0.248905
 Sum of Mulliken charges =  -0.00000

 Dipole moment (field-independent basis, Debye):
    X=              5.4158    Y=              4.7958    Z=              1.2813  Tot=              7.3465
 Quadrupole moment (field-independent basis, Debye-Ang):
   XX=           -106.1401   YY=            -79.2241   ZZ=            -81.5019
   XY=             -1.7643   XZ=             -0.1338   YZ=              1.8560

 Normal termination of Gaussian 16 at Sun Jul  2 11:04:08 2023.
