 Gaussian 16, Revision C.02,
 Gaussian 16:  ES64L-G16RevC.02  7-Dec-2021

 ---------------------------------------------------------
 #MP2/6-31G* SCF=Tight Opt=(ModRedun, MaxCycle=20 ) NoSymm
 ---------------------------------------------------------

 --------
 MolName:
 --------
 Symbolic Z-matrix:
 Charge =  0 Multiplicity = 1

 SCF Done:  E(RHF) =  -661.278768586     A.U. after   16 cycles
 E2 =    -0.2037587261D+01 EUMP2 =    -0.66331635584677D+03
 SCF Done:  E(RHF) =  -661.296450419     A.U. after   15 cycles
 E2 =    -0.2032853645D+01 EUMP2 =    -0.66332930406389D+03
 SCF Done:  E(RHF) =  -661.298995183     A.U. after   14 cycles
 E2 =    -0.2033367354D+01 EUMP2 =    -0.66333236253729D+03
 SCF Done:  E(RHF) =  -661.292526510     A.U. after   15 cycles
 E2 =    -0.2035863563D+01 EUMP2 =    -0.66332839007316D+03
 SCF Done:  E(RHF) =  -661.296900176     A.U. after   15 cycles
 E2 =    -0.2035893358D+01 EUMP2 =    -0.66333279353458D+03
 SCF Done:  E(RHF) =  -661.298860405     A.U. after   14 cycles
 E2 =    -0.2034890481D+01 EUMP2 =    -0.66333375088669D+03
 SCF Done:  E(RHF) =  -661.299538097     A.U. after   12 cycles
 E2 =    -0.2034272975D+01 EUMP2 =    -0.66333381107197D+03
 SCF Done:  E(RHF) =  -661.299635208     A.U. after   11 cycles
 E2 =    -0.2034190558D+01 EUMP2 =    -0.66333382576674D+03
 SCF Done:  E(RHF) =  -661.299578649     A.U. after   10 cycles
 E2 =    -0.2034248585D+01 EUMP2 =    -0.66333382723394D+03
 Optimization completed.
    -- Stationary point found.

                          Input orientation:
 ---------------------------------------------------------------------
 Center     Atomic      Atomic             Coordinates (Angstroms)
 Number     Number       Type             X           Y           Z
 ---------------------------------------------------------------------
      1          8           0       -3.495198   -1.402087   -0.355129
      2          7           0       -3.120660   -0.251191   -0.056648
      3          8           0       -3.902843    0.688292    0.185914
      4          6           0       -1.688406   -0.029211    0.032727
      5          6           0       -1.308844    1.267636    0.258799
      6          7           0       -0.062272    1.753110    0.356014
      7          6           0        1.196571    1.018279    0.346936
      8          1           0        1.838074    1.547426    1.068319
      9          6           0        1.918129    1.028273   -0.999834
     10          6           0        3.315270    0.423927   -0.818260
     11          6           0        3.262298   -0.971616   -0.190917
     12          6           0        2.451685   -0.982273    1.106972
     13          6           0        1.044400   -0.429611    0.857779
     14          1           0        0.460482   -0.406278    1.792144
     15          7           0        0.405376   -1.313277   -0.113666
     16          6           0       -0.837338   -1.118506   -0.414443
     17          1           0       -2.103237    1.996275    0.396221
     18          1           0        0.007040    2.748184    0.533426
     19          1           0        1.334429    0.451037   -1.724474
     20          1           0        1.988656    2.056505   -1.376346
     21          1           0        3.831180    0.385874   -1.784464
     22          1           0        3.906151    1.091673   -0.175216
     23          1           0        2.795129   -1.669916   -0.892083
     24          1           0        4.279964   -1.332502   -0.000341
     25          1           0        2.362766   -2.004138    1.490480
     26          1           0        2.952688   -0.384398    1.880776
     27          1           0       -1.272500   -1.798490   -1.146667
 ---------------------------------------------------------------------

 Alpha  occ. eigenvalues --  -20.59159 -20.58822 -15.84627 -15.64103 -15.56260
 Alpha  occ. eigenvalues --  -11.35015 -11.29660 -11.29600 -11.28533 -11.27186
 Alpha  occ. eigenvalues --  -11.23737 -11.23222 -11.22747 -11.22113  -1.57038
 Alpha  occ. eigenvalues --   -1.36642  -1.30985  -1.23191  -1.14692  -1.09820
 Alpha  occ. eigenvalues --   -1.02826  -1.01318  -0.94440  -0.89635  -0.85611
 Alpha  occ. eigenvalues --   -0.82416  -0.78536  -0.77422  -0.75166  -0.71965
 Alpha  occ. eigenvalues --   -0.69724  -0.69424  -0.67831  -0.64999  -0.63690
 Alpha  occ. eigenvalues --   -0.62448  -0.60330  -0.57664  -0.57131  -0.55083
 Alpha  occ. eigenvalues --   -0.54546  -0.50892  -0.49971  -0.48560  -0.48079
 Alpha  occ. eigenvalues --   -0.47332  -0.46229  -0.46034  -0.43607  -0.41539
 Alpha  occ. eigenvalues --   -0.40081  -0.33931
 Alpha virt. eigenvalues --    0.07555   0.11999   0.17381   0.21774   0.23697
 Alpha virt. eigenvalues --    0.25176   0.27221   0.28584   0.28998   0.29638
 Alpha virt. eigenvalues --    0.30721   0.31837   0.32046   0.32726   0.33899

 Mulliken charges:
               1
     1  O   -0.467441
     2  N    0.490666
     3  O   -0.503547
     4  C   -0.002482
     5  C    0.191677
     6  N   -0.780266
     7  C    0.060253
     8  H    0.179879
     9  C   -0.301250
    10  C   -0.327943
    11  C   -0.320836
    12  C   -0.307146
    13  C   -0.038198
    14  H    0.191162
    15  N   -0.505370
    16  C    0.121198
    17  H    0.294013
    18  H    0.404787
    19  H    0.190245
    20  H    0.160008
    21  H    0.174535
    22  H    0.149399
    23  H    0.199787
    24  H    0.164498
    25  H    0.186972
    26  H    0.151161
    27  H    0.244241
 Sum of Mulliken charges =  -0.00000

 Dipole moment (field-independent basis, Debye):
    X=              5.4672    Y=              4.8789    Z=              0.9859  Tot=              7.3936
 Quadrupole moment (field-independent basis, Debye-Ang):
   XX=           -106.2727   YY=            -79.1362   ZZ=            -81.5857
   XY=             -2.1886   XZ=              0.7683   YZ=              1.2847

 Normal termination of Gaussian 16 at Sun Jul  2 11:24:32 2023.
