 Gaussian 16, Revision C.02,
 Gaussian 16:  ES64L-G16RevC.02  7-Dec-2021

 ---------------------------------------------------------
 #MP2/6-31G* SCF=Tight Opt=(ModRedun, MaxCycle=20 ) NoSymm
 ---------------------------------------------------------

 --------
 MolName:
 --------
 Symbolic Z-matrix:
 Charge =  0 Multiplicity = 1

 SCF Done:  E(RHF) =  -661.274769684     A.U. after   16 cycles
 E2 =    -0.2038134101D+01 EUMP2 =    -0.66331290378563D+03
 SCF Done:  E(RHF) =  -661.292978179     A.U. after   15 cycles
 E2 =    -0.2033354758D+01 EUMP2 =    -0.66332633293673D+03
 SCF Done:  E(RHF) =  -661.295266950     A.U. after   15 cycles
 E2 =    -0.2033910903D+01 EUMP2 =    -0.66332917785362D+03
 SCF Done:  E(RHF) =  -661.284737639     A.U. after   17 cycles
 E2 =    -0.2036810552D+01 EUMP2 =    -0.66332154819055D+03
 SCF Done:  E(RHF) =  -661.295437880     A.U. after   14 cycles
 E2 =    -0.2035594433D+01 EUMP2 =    -0.66333103231319D+03
 SCF Done:  E(RHF) =  -661.296120571     A.U. after   13 cycles
 E2 =    -0.2035131247D+01 EUMP2 =    -0.66333125181863D+03
 SCF Done:  E(RHF) =  -661.296752771     A.U. after   12 cycles
 E2 =    -0.2034555829D+01 EUMP2 =    -0.66333130860021D+03
 SCF Done:  E(RHF) =  -661.296784448     A.U. after   11 cycles
 E2 =    -0.2034535085D+01 EUMP2 =    -0.66333131953325D+03
 SCF Done:  E(RHF) =  -661.296722495     A.U. after   10 cycles
 E2 =    -0.2034598734D+01 EUMP2 =    -0.66333132122928D+03
 Optimization completed.
    -- Stationary point found.

                          Input orientation:
 ---------------------------------------------------------------------
 Center     Atomic      Atomic             Coordinates (Angstroms)
 Number     Number       Type             X           Y           Z
 ---------------------------------------------------------------------
      1          8           0       -3.479799   -1.416175   -0.325966
      2          7           0       -3.114946   -0.271731    0.008231
      3          8           0       -3.902786    0.645559    0.310619
      4          6           0       -1.685451   -0.033137    0.071007
      5          6           0       -1.317164    1.274391    0.241436
      6          7           0       -0.068130    1.757010    0.322645
      7          6           0        1.186533    1.012715    0.333027
      8          1           0        1.821678    1.542148    1.060324
      9          6           0        1.926087    1.020439   -1.004370
     10          6           0        3.321807    0.418605   -0.804912
     11          6           0        3.263940   -0.975815   -0.175688
     12          6           0        2.437935   -0.985394    1.112539
     13          6           0        1.033067   -0.434498    0.850037
     14          1           0        0.441236   -0.408843    1.779835
     15          7           0        0.402248   -1.309445   -0.136475
     16          6           0       -0.836079   -1.099278   -0.442305
     17          1           0       -2.112354    2.003343    0.374046
     18          1           0        0.011127    2.758844    0.451133
     19          1           0        1.353003    0.442893   -1.736937
     20          1           0        2.001160    2.048652   -1.380474
     21          1           0        3.849652    0.379777   -1.764608
     22          1           0        3.903694    1.088397   -0.155815
     23          1           0        2.807280   -1.676283   -0.881399
     24          1           0        4.279972   -1.333886    0.028453
     25          1           0        2.345619   -2.006841    1.496661
     26          1           0        2.929868   -0.386633    1.891421
     27          1           0       -1.240198   -1.691804   -1.263454
 ---------------------------------------------------------------------

 Alpha  occ. eigenvalues --  -20.59067 -20.58736 -15.84500 -15.64057 -15.56414
 Alpha  occ. eigenvalues --  -11.35027 -11.29701 -11.29673 -11.28422 -11.27260
 Alpha  occ. eigenvalues --  -11.23747 -11.23236 -11.22806 -11.22140  -1.56928
 Alpha  occ. eigenvalues --   -1.36548  -1.30969  -1.23307  -1.14677  -1.09814
 Alpha  occ. eigenvalues --   -1.02843  -1.01319  -0.94384  -0.89563  -0.85647
 Alpha  occ. eigenvalues --   -0.82377  -0.78433  -0.77436  -0.75106  -0.71888
 Alpha  occ. eigenvalues --   -0.69673  -0.69385  -0.67828  -0.65104  -0.63597
 Alpha  occ. eigenvalues --   -0.62523  -0.60415  -0.57622  -0.57248  -0.55107
 Alpha  occ. eigenvalues --   -0.54502  -0.51013  -0.49826  -0.48467  -0.48043
 Alpha  occ. eigenvalues --   -0.47281  -0.46351  -0.45974  -0.43514  -0.41453
 Alpha  occ. eigenvalues --   -0.40179  -0.34036
 Alpha virt. eigenvalues --    0.07641   0.12168   0.17461   0.21564   0.23057
 Alpha virt. eigenvalues --    0.24870   0.27249   0.28444   0.28992   0.29574
 Alpha virt. eigenvalues --    0.30714   0.31901   0.32100   0.32676   0.33834

 Mulliken charges:
               1
     1  O   -0.467885
     2  N    0.489801
     3  O   -0.502540
     4  C   -0.005229
     5  C    0.193728
     6  N   -0.779521
     7  C    0.060258
     8  H    0.179834
     9  C   -0.301076
    10  C   -0.327915
    11  C   -0.320195
    12  C   -0.307581
    13  C   -0.039789
    14  H    0.192699
    15  N   -0.499404
    16  C    0.122460
    17  H    0.292614
    18  H    0.404503
    19  H    0.190249
    20  H    0.158765
    21  H    0.174424
    22  H    0.149450
    23  H    0.199623
    24  H    0.164470
    25  H    0.186932
    26  H    0.151983
    27  H    0.239343
 Sum of Mulliken charges =  -0.00000

 Dipole moment (field-independent basis, Debye):
    X=              5.5107    Y=              4.9613    Z=              0.6945  Tot=              7.4474
 Quadrupole moment (field-independent basis, Debye-Ang):
   XX=           -106.3245   YY=            -79.1128   ZZ=            -81.6675
   XY=             -2.6540   XZ=              1.6669   YZ=              0.7458

 Normal termination of Gaussian 16 at Sun Jul  2 11:44:45 2023.
