 Gaussian 16, Revision C.02,
 Gaussian 16:  ES64L-G16RevC.02  7-Dec-2021

 ---------------------------------------------------------
 #MP2/6-31G* SCF=Tight Opt=(ModRedun, MaxCycle=20 ) NoSymm
 ---------------------------------------------------------

 --------
 MolName:
 --------
 Symbolic Z-matrix:
 Charge =  0 Multiplicity = 1

 SCF Done:  E(RHF) =  -661.275336814     A.U. after   16 cycles
 E2 =    -0.2037839705D+01 EUMP2 =    -0.66331317651824D+03
 SCF Done:  E(RHF) =  -661.293059842     A.U. after   15 cycles
 E2 =    -0.2033681829D+01 EUMP2 =    -0.66332674167080D+03
 SCF Done:  E(RHF) =  -661.290606989     A.U. after   15 cycles
 E2 =    -0.2035116001D+01 EUMP2 =    -0.66332572298998D+03
 SCF Done:  E(RHF) =  -661.286254792     A.U. after   16 cycles
 E2 =    -0.2036964756D+01 EUMP2 =    -0.66332321954785D+03
 SCF Done:  E(RHF) =  -661.284390694     A.U. after   16 cycles
 E2 =    -0.2037040374D+01 EUMP2 =    -0.66332143106822D+03
 SCF Done:  E(RHF) =  -661.293463250     A.U. after   12 cycles
 E2 =    -0.2034298735D+01 EUMP2 =    -0.66332776198552D+03
 SCF Done:  E(RHF) =  -661.294444787     A.U. after   14 cycles
 E2 =    -0.2035560845D+01 EUMP2 =    -0.66333000563186D+03
 SCF Done:  E(RHF) =  -661.294939814     A.U. after   13 cycles
 E2 =    -0.2035573371D+01 EUMP2 =    -0.66333051318581D+03
 SCF Done:  E(RHF) =  -661.295312458     A.U. after   13 cycles
 E2 =    -0.2035363853D+01 EUMP2 =    -0.66333067631124D+03
 SCF Done:  E(RHF) =  -661.295170924     A.U. after   12 cycles
 E2 =    -0.2035532350D+01 EUMP2 =    -0.66333070327431D+03
 SCF Done:  E(RHF) =  -661.295201706     A.U. after   11 cycles
 E2 =    -0.2035510581D+01 EUMP2 =    -0.66333071228697D+03
 SCF Done:  E(RHF) =  -661.295206392     A.U. after    9 cycles
 E2 =    -0.2035506179D+01 EUMP2 =    -0.66333071257122D+03
 Optimization completed.
    -- Stationary point found.

                          Input orientation:
 ---------------------------------------------------------------------
 Center     Atomic      Atomic             Coordinates (Angstroms)
 Number     Number       Type             X           Y           Z
 ---------------------------------------------------------------------
      1          8           0       -3.526280   -1.353538   -0.397972
      2          7           0       -3.103782   -0.189278   -0.261159
      3          8           0       -3.844242    0.813586   -0.254448
      4          6           0       -1.664485   -0.010605   -0.112581
      5          6           0       -1.288427    1.242871    0.305334
      6          7           0       -0.050953    1.741698    0.454627
      7          6           0        1.220831    1.032437    0.389174
      8          1           0        1.880534    1.560074    1.093071
      9          6           0        1.884261    1.049493   -0.985547
     10          6           0        3.285468    0.439634   -0.860874
     11          6           0        3.250551   -0.958908   -0.238600
     12          6           0        2.490110   -0.972851    1.089150
     13          6           0        1.074345   -0.419543    0.881742
     14          1           0        0.513475   -0.406750    1.828148
     15          7           0        0.413687   -1.333866   -0.043424
     16          6           0       -0.844095   -1.182715   -0.322011
     17          1           0       -2.088919    1.961767    0.456632
     18          1           0       -0.012583    2.696202    0.792707
     19          1           0        1.268427    0.472222   -1.684024
     20          1           0        1.939116    2.077680   -1.363358
     21          1           0        3.762899    0.404132   -1.846815
     22          1           0        3.903388    1.102461   -0.238598
     23          1           0        2.751303   -1.652068   -0.923471
     24          1           0        4.272886   -1.326821   -0.091556
     25          1           0        2.414320   -1.995472    1.472309
     26          1           0        3.018308   -0.374797    1.844716
     27          1           0       -1.359163   -2.054024   -0.725174
 ---------------------------------------------------------------------

 Alpha  occ. eigenvalues --  -20.59360 -20.59051 -15.84792 -15.64188 -15.55724
 Alpha  occ. eigenvalues --  -11.35089 -11.29585 -11.29551 -11.28739 -11.27087
 Alpha  occ. eigenvalues --  -11.23725 -11.23184 -11.22570 -11.22047  -1.57215
 Alpha  occ. eigenvalues --   -1.36810  -1.30944  -1.22785  -1.14703  -1.09787
 Alpha  occ. eigenvalues --   -1.02750  -1.01254  -0.94491  -0.89692  -0.85451
 Alpha  occ. eigenvalues --   -0.82479  -0.78701  -0.77383  -0.75214  -0.72081
 Alpha  occ. eigenvalues --   -0.69855  -0.69431  -0.67739  -0.64662  -0.63955
 Alpha  occ. eigenvalues --   -0.62205  -0.60292  -0.57782  -0.56687  -0.55145
 Alpha  occ. eigenvalues --   -0.54642  -0.50613  -0.50235  -0.48844  -0.48093
 Alpha  occ. eigenvalues --   -0.47436  -0.46267  -0.45759  -0.43754  -0.42086
 Alpha  occ. eigenvalues --   -0.39066  -0.33590
 Alpha virt. eigenvalues --    0.07362   0.11292   0.17186   0.21885   0.24421
 Alpha virt. eigenvalues --    0.26210   0.26783   0.28536   0.29324   0.29369
 Alpha virt. eigenvalues --    0.30964   0.31782   0.32164   0.32848   0.33984

 Mulliken charges:
               1
     1  O   -0.468122
     2  N    0.490773
     3  O   -0.499038
     4  C    0.008896
     5  C    0.179761
     6  N   -0.775263
     7  C    0.058264
     8  H    0.181195
     9  C   -0.302050
    10  C   -0.327882
    11  C   -0.322900
    12  C   -0.305390
    13  C   -0.036302
    14  H    0.188573
    15  N   -0.525174
    16  C    0.115094
    17  H    0.296813
    18  H    0.404475
    19  H    0.190398
    20  H    0.164415
    21  H    0.174936
    22  H    0.149403
    23  H    0.200060
    24  H    0.164714
    25  H    0.187441
    26  H    0.148525
    27  H    0.258384
 Sum of Mulliken charges =  -0.00000

 Dipole moment (field-independent basis, Debye):
    X=              5.2723    Y=              4.6018    Z=              1.9428  Tot=              7.2628
 Quadrupole moment (field-independent basis, Debye-Ang):
   XX=           -105.5302   YY=            -79.5574   ZZ=            -81.4150
   XY=             -0.9040   XZ=             -2.1872   YZ=              3.0370

 Normal termination of Gaussian 16 at Sat Jul  1 02:36:53 2023.
