 Gaussian 16, Revision C.02,
 Gaussian 16:  ES64L-G16RevC.02  7-Dec-2021

 ---------------------------------------------------------
 #MP2/6-31G* SCF=Tight Opt=(ModRedun, MaxCycle=20 ) NoSymm
 ---------------------------------------------------------

 --------
 MolName:
 --------
 Symbolic Z-matrix:
 Charge =  0 Multiplicity = 1

 SCF Done:  E(RHF) =  -661.268507846     A.U. after   16 cycles
 E2 =    -0.2038543129D+01 EUMP2 =    -0.66330705097537D+03
 SCF Done:  E(RHF) =  -661.289114741     A.U. after   15 cycles
 E2 =    -0.2034345530D+01 EUMP2 =    -0.66332346027079D+03
 SCF Done:  E(RHF) =  -661.294149951     A.U. after   15 cycles
 E2 =    -0.2034568438D+01 EUMP2 =    -0.66332871838957D+03
 SCF Done:  E(RHF) =  -661.289423521     A.U. after   15 cycles
 E2 =    -0.2036660267D+01 EUMP2 =    -0.66332608378762D+03
 SCF Done:  E(RHF) =  -661.292876950     A.U. after   15 cycles
 E2 =    -0.2037337850D+01 EUMP2 =    -0.66333021479991D+03
 SCF Done:  E(RHF) =  -661.295353693     A.U. after   14 cycles
 E2 =    -0.2035986099D+01 EUMP2 =    -0.66333133979248D+03
 SCF Done:  E(RHF) =  -661.296240735     A.U. after   12 cycles
 E2 =    -0.2035212134D+01 EUMP2 =    -0.66333145286836D+03
 SCF Done:  E(RHF) =  -661.296213495     A.U. after   11 cycles
 E2 =    -0.2035254539D+01 EUMP2 =    -0.66333146803451D+03
 SCF Done:  E(RHF) =  -661.296180474     A.U. after   10 cycles
 E2 =    -0.2035292774D+01 EUMP2 =    -0.66333147324810D+03
 SCF Done:  E(RHF) =  -661.296135196     A.U. after   10 cycles
 E2 =    -0.2035339320D+01 EUMP2 =    -0.66333147451553D+03
 SCF Done:  E(RHF) =  -661.296120381     A.U. after    9 cycles
 E2 =    -0.2035354251D+01 EUMP2 =    -0.66333147463197D+03
 Optimization completed.
    -- Stationary point found.

                          Input orientation:
 ---------------------------------------------------------------------
 Center     Atomic      Atomic             Coordinates (Angstroms)
 Number     Number       Type             X           Y           Z
 ---------------------------------------------------------------------
      1          8           0       -3.500645   -1.275346   -0.702716
      2          7           0       -3.105872   -0.176900   -0.267490
      3          8           0       -3.859238    0.801911   -0.100594
      4          6           0       -1.692591   -0.060532    0.084557
      5          6           0       -1.294355    1.234138    0.331890
      6          7           0       -0.055624    1.728362    0.461321
      7          6           0        1.215521    1.021475    0.391680
      8          1           0        1.881343    1.560618    1.082047
      9          6           0        1.866865    1.030646   -0.989420
     10          6           0        3.273840    0.432857   -0.872128
     11          6           0        3.255259   -0.960020   -0.236693
     12          6           0        2.507074   -0.967507    1.098081
     13          6           0        1.086350   -0.423460    0.903941
     14          1           0        0.538405   -0.404911    1.858665
     15          7           0        0.417505   -1.336076   -0.017664
     16          6           0       -0.842803   -1.177071   -0.278600
     17          1           0       -2.087225    1.970442    0.427506
     18          1           0       -0.004742    2.719584    0.666818
     19          1           0        1.249686    0.443987   -1.678429
     20          1           0        1.912532    2.056337   -1.376158
     21          1           0        3.742559    0.391903   -1.862011
     22          1           0        3.892210    1.106073   -0.261519
     23          1           0        2.755844   -1.662975   -0.911027
     24          1           0        4.281837   -1.318054   -0.094829
     25          1           0        2.440812   -1.987654    1.489896
     26          1           0        3.039526   -0.361752    1.844417
     27          1           0       -1.348072   -2.026074   -0.736551
 ---------------------------------------------------------------------

 Alpha  occ. eigenvalues --  -20.59267 -20.58921 -15.84810 -15.64431 -15.55767
 Alpha  occ. eigenvalues --  -11.35170 -11.29604 -11.29462 -11.28681 -11.27052
 Alpha  occ. eigenvalues --  -11.23801 -11.23228 -11.22622 -11.22066  -1.57175
 Alpha  occ. eigenvalues --   -1.36739  -1.31160  -1.22842  -1.14714  -1.09780
 Alpha  occ. eigenvalues --   -1.02802  -1.01302  -0.94383  -0.89624  -0.85599
 Alpha  occ. eigenvalues --   -0.82422  -0.78760  -0.77350  -0.75225  -0.72147
 Alpha  occ. eigenvalues --   -0.69642  -0.69531  -0.67883  -0.64630  -0.63887
 Alpha  occ. eigenvalues --   -0.62408  -0.60081  -0.57779  -0.56835  -0.55124
 Alpha  occ. eigenvalues --   -0.54699  -0.50637  -0.50221  -0.48695  -0.48082
 Alpha  occ. eigenvalues --   -0.47337  -0.46352  -0.45781  -0.43759  -0.41883
 Alpha  occ. eigenvalues --   -0.39529  -0.33618
 Alpha virt. eigenvalues --    0.07560   0.11448   0.17194   0.21970   0.24370
 Alpha virt. eigenvalues --    0.25793   0.26759   0.28183   0.29178   0.29404
 Alpha virt. eigenvalues --    0.30879   0.31782   0.32214   0.32815   0.33833

 Mulliken charges:
               1
     1  O   -0.467813
     2  N    0.496761
     3  O   -0.501518
     4  C    0.005633
     5  C    0.187469
     6  N   -0.774683
     7  C    0.057983
     8  H    0.181166
     9  C   -0.302694
    10  C   -0.327848
    11  C   -0.322182
    12  C   -0.305844
    13  C   -0.036508
    14  H    0.190366
    15  N   -0.519108
    16  C    0.098180
    17  H    0.294724
    18  H    0.406091
    19  H    0.191356
    20  H    0.161454
    21  H    0.175052
    22  H    0.149540
    23  H    0.200504
    24  H    0.164580
    25  H    0.186982
    26  H    0.149462
    27  H    0.260891
 Sum of Mulliken charges =  -0.00000

 Dipole moment (field-independent basis, Debye):
    X=              5.3606    Y=              4.6568    Z=              1.7818  Tot=              7.3210
 Quadrupole moment (field-independent basis, Debye-Ang):
   XX=           -105.6870   YY=            -78.6206   ZZ=            -82.3860
   XY=             -0.6347   XZ=             -2.5183   YZ=              1.3267

 Normal termination of Gaussian 16 at Sun Jul  2 05:16:12 2023.
