 Gaussian 16, Revision C.02,
 Gaussian 16:  ES64L-G16RevC.02  7-Dec-2021

 ---------------------------------------------------------
 #MP2/6-31G* SCF=Tight Opt=(ModRedun, MaxCycle=20 ) NoSymm
 ---------------------------------------------------------

 --------
 MolName:
 --------
 Symbolic Z-matrix:
 Charge =  0 Multiplicity = 1

 SCF Done:  E(RHF) =  -661.280192826     A.U. after   16 cycles
 E2 =    -0.2037311727D+01 EUMP2 =    -0.66331750455322D+03
 SCF Done:  E(RHF) =  -661.297600183     A.U. after   14 cycles
 E2 =    -0.2033006976D+01 EUMP2 =    -0.66333060715938D+03
 SCF Done:  E(RHF) =  -661.296800928     A.U. after   16 cycles
 E2 =    -0.2034069141D+01 EUMP2 =    -0.66333087006895D+03
 SCF Done:  E(RHF) =  -661.287010162     A.U. after   17 cycles
 E2 =    -0.2037090569D+01 EUMP2 =    -0.66332410073139D+03
 SCF Done:  E(RHF) =  -661.297717666     A.U. after   15 cycles
 E2 =    -0.2035515065D+01 EUMP2 =    -0.66333323273178D+03
 SCF Done:  E(RHF) =  -661.298599156     A.U. after   14 cycles
 E2 =    -0.2035153507D+01 EUMP2 =    -0.66333375266302D+03
 SCF Done:  E(RHF) =  -661.299296222     A.U. after   12 cycles
 E2 =    -0.2034550631D+01 EUMP2 =    -0.66333384685329D+03
 SCF Done:  E(RHF) =  -661.299334668     A.U. after   12 cycles
 E2 =    -0.2034535646D+01 EUMP2 =    -0.66333387031387D+03
 SCF Done:  E(RHF) =  -661.299247243     A.U. after   11 cycles
 E2 =    -0.2034626239D+01 EUMP2 =    -0.66333387348141D+03
 SCF Done:  E(RHF) =  -661.299213730     A.U. after   10 cycles
 E2 =    -0.2034659944D+01 EUMP2 =    -0.66333387367454D+03
 Optimization completed.
    -- Stationary point found.

                          Input orientation:
 ---------------------------------------------------------------------
 Center     Atomic      Atomic             Coordinates (Angstroms)
 Number     Number       Type             X           Y           Z
 ---------------------------------------------------------------------
      1          8           0       -3.515446   -1.334510   -0.539257
      2          7           0       -3.118004   -0.205536   -0.192524
      3          8           0       -3.879677    0.765863   -0.019953
      4          6           0       -1.688706   -0.043203    0.040058
      5          6           0       -1.297818    1.247211    0.303283
      6          7           0       -0.056279    1.738843    0.423818
      7          6           0        1.211002    1.022553    0.375510
      8          1           0        1.867925    1.557181    1.078041
      9          6           0        1.888335    1.032593   -0.993341
     10          6           0        3.291542    0.431094   -0.852657
     11          6           0        3.259001   -0.963230   -0.221041
     12          6           0        2.487519   -0.972241    1.100421
     13          6           0        1.071804   -0.424197    0.885174
     14          1           0        0.509719   -0.404100    1.832033
     15          7           0        0.413982   -1.327486   -0.053544
     16          6           0       -0.840081   -1.157830   -0.330909
     17          1           0       -2.091730    1.979340    0.421361
     18          1           0       -0.001221    2.727489    0.639432
     19          1           0        1.282696    0.450003   -1.695796
     20          1           0        1.943709    2.059338   -1.376019
     21          1           0        3.777796    0.391498   -1.834113
     22          1           0        3.900542    1.101355   -0.229453
     23          1           0        2.770582   -1.663555   -0.905936
     24          1           0        4.282261   -1.323390   -0.061528
     25          1           0        2.412254   -1.993206    1.488731
     26          1           0        3.008698   -0.369926    1.857405
     27          1           0       -1.327395   -1.960960   -0.882206
 ---------------------------------------------------------------------

 Alpha  occ. eigenvalues --  -20.59260 -20.58921 -15.84778 -15.64291 -15.55921
 Alpha  occ. eigenvalues --  -11.35098 -11.29611 -11.29494 -11.28661 -11.27083
 Alpha  occ. eigenvalues --  -11.23763 -11.23216 -11.22654 -11.22074  -1.57157
 Alpha  occ. eigenvalues --   -1.36732  -1.31072  -1.22949  -1.14711  -1.09801
 Alpha  occ. eigenvalues --   -1.02802  -1.01302  -0.94444  -0.89668  -0.85581
 Alpha  occ. eigenvalues --   -0.82436  -0.78695  -0.77374  -0.75223  -0.72096
 Alpha  occ. eigenvalues --   -0.69668  -0.69541  -0.67852  -0.64750  -0.63830
 Alpha  occ. eigenvalues --   -0.62391  -0.60174  -0.57741  -0.56921  -0.55093
 Alpha  occ. eigenvalues --   -0.54643  -0.50687  -0.50190  -0.48695  -0.48091
 Alpha  occ. eigenvalues --   -0.47360  -0.46245  -0.45921  -0.43729  -0.41798
 Alpha  occ. eigenvalues --   -0.39683  -0.33715
 Alpha virt. eigenvalues --    0.07488   0.11641   0.17256   0.21926   0.24276
 Alpha virt. eigenvalues --    0.25856   0.27029   0.28407   0.29111   0.29518
 Alpha virt. eigenvalues --    0.30778   0.31811   0.32112   0.32798   0.33887

 Mulliken charges:
               1
     1  O   -0.467630
     2  N    0.492571
     3  O   -0.502828
     4  C    0.004720
     5  C    0.188789
     6  N   -0.778028
     7  C    0.059210
     8  H    0.180576
     9  C   -0.302027
    10  C   -0.327888
    11  C   -0.321794
    12  C   -0.306268
    13  C   -0.036608
    14  H    0.190035
    15  N   -0.516010
    16  C    0.106771
    17  H    0.295376
    18  H    0.405534
    19  H    0.190796
    20  H    0.161331
    21  H    0.174822
    22  H    0.149432
    23  H    0.200231
    24  H    0.164525
    25  H    0.186981
    26  H    0.149885
    27  H    0.257494
 Sum of Mulliken charges =  -0.00000

 Dipole moment (field-independent basis, Debye):
    X=              5.3916    Y=              4.7322    Z=              1.5235  Tot=              7.3337
 Quadrupole moment (field-independent basis, Debye-Ang):
   XX=           -106.0148   YY=            -78.9157   ZZ=            -81.9029
   XY=             -1.2223   XZ=             -1.3261   YZ=              1.5607

 Normal termination of Gaussian 16 at Sun Jul  2 04:51:26 2023.
