 Gaussian 16, Revision C.02,
 Gaussian 16:  ES64L-G16RevC.02  7-Dec-2021

 ---------------------------------------------------------
 #MP2/6-31G* SCF=Tight Opt=(ModRedun, MaxCycle=20 ) NoSymm
 ---------------------------------------------------------

 --------
 MolName:
 --------
 Symbolic Z-matrix:
 Charge =  0 Multiplicity = 1

 SCF Done:  E(RHF) =  -661.281409615     A.U. after   16 cycles
 E2 =    -0.2037230130D+01 EUMP2 =    -0.66331863974469D+03
 SCF Done:  E(RHF) =  -661.298656520     A.U. after   14 cycles
 E2 =    -0.2032687902D+01 EUMP2 =    -0.66333134442234D+03
 SCF Done:  E(RHF) =  -661.300235077     A.U. after   14 cycles
 E2 =    -0.2033370910D+01 EUMP2 =    -0.66333360598737D+03
 SCF Done:  E(RHF) =  -661.297730690     A.U. after   15 cycles
 E2 =    -0.2034811089D+01 EUMP2 =    -0.66333254177909D+03
 SCF Done:  E(RHF) =  -661.296040749     A.U. after   15 cycles
 E2 =    -0.2036496989D+01 EUMP2 =    -0.66333253773857D+03
 SCF Done:  E(RHF) =  -661.294649055     A.U. after   15 cycles
 E2 =    -0.2036238418D+01 EUMP2 =    -0.66333088747261D+03
 SCF Done:  E(RHF) =  -661.299965011     A.U. after   11 cycles
 E2 =    -0.2033887974D+01 EUMP2 =    -0.66333385298517D+03
 SCF Done:  E(RHF) =  -661.299932302     A.U. after   14 cycles
 E2 =    -0.2034604019D+01 EUMP2 =    -0.66333453632126D+03
 SCF Done:  E(RHF) =  -661.300321429     A.U. after   12 cycles
 E2 =    -0.2034307070D+01 EUMP2 =    -0.66333462849965D+03
 SCF Done:  E(RHF) =  -661.300376649     A.U. after   11 cycles
 E2 =    -0.2034271805D+01 EUMP2 =    -0.66333464845389D+03
 SCF Done:  E(RHF) =  -661.300381243     A.U. after   10 cycles
 E2 =    -0.2034268034D+01 EUMP2 =    -0.66333464927720D+03
 SCF Done:  E(RHF) =  -661.300365096     A.U. after    9 cycles
 E2 =    -0.2034284312D+01 EUMP2 =    -0.66333464940820D+03
 Optimization completed.
    -- Stationary point found.

                          Input orientation:
 ---------------------------------------------------------------------
 Center     Atomic      Atomic             Coordinates (Angstroms)
 Number     Number       Type             X           Y           Z
 ---------------------------------------------------------------------
      1          8           0       -3.506859   -1.391149   -0.367587
      2          7           0       -3.121141   -0.232810   -0.116015
      3          8           0       -3.895487    0.728161    0.058100
      4          6           0       -1.686695   -0.024068   -0.008255
      5          6           0       -1.301413    1.260641    0.275439
      6          7           0       -0.057159    1.750371    0.385253
      7          6           0        1.205707    1.024298    0.358191
      8          1           0        1.853748    1.553886    1.072858
      9          6           0        1.908579    1.034313   -0.997960
     10          6           0        3.307102    0.427956   -0.834022
     11          6           0        3.259526   -0.967607   -0.206237
     12          6           0        2.465120   -0.977168    1.101594
     13          6           0        1.055239   -0.423843    0.865318
     14          1           0        0.479137   -0.401730    1.803985
     15          7           0        0.408276   -1.318015   -0.089874
     16          6           0       -0.839206   -1.138525   -0.384785
     17          1           0       -2.096118    1.987612    0.419004
     18          1           0        0.001767    2.735702    0.613687
     19          1           0        1.314079    0.456210   -1.713403
     20          1           0        1.974283    2.061933   -1.376568
     21          1           0        3.810634    0.389074   -1.806740
     22          1           0        3.907109    1.094855   -0.198586
     23          1           0        2.781614   -1.665022   -0.901287
     24          1           0        4.278808   -1.330854   -0.029240
     25          1           0        2.379949   -1.998765    1.486358
     26          1           0        2.975385   -0.378619    1.868886
     27          1           0       -1.300946   -1.893857   -1.020134
 ---------------------------------------------------------------------

 Alpha  occ. eigenvalues --  -20.59236 -20.58904 -15.84722 -15.64136 -15.56112
 Alpha  occ. eigenvalues --  -11.35017 -11.29622 -11.29559 -11.28627 -11.27134
 Alpha  occ. eigenvalues --  -11.23728 -11.23208 -11.22692 -11.22089  -1.57116
 Alpha  occ. eigenvalues --   -1.36708  -1.30978  -1.23065  -1.14704  -1.09820
 Alpha  occ. eigenvalues --   -1.02805  -1.01309  -0.94482  -0.89685  -0.85567
 Alpha  occ. eigenvalues --   -0.82448  -0.78609  -0.77411  -0.75203  -0.72020
 Alpha  occ. eigenvalues --   -0.69770  -0.69438  -0.67820  -0.64893  -0.63777
 Alpha  occ. eigenvalues --   -0.62368  -0.60282  -0.57701  -0.57001  -0.55077
 Alpha  occ. eigenvalues --   -0.54582  -0.50763  -0.50109  -0.48656  -0.48102
 Alpha  occ. eigenvalues --   -0.47372  -0.46147  -0.46045  -0.43677  -0.41696
 Alpha  occ. eigenvalues --   -0.39848  -0.33830
 Alpha virt. eigenvalues --    0.07464   0.11800   0.17307   0.21848   0.24113
 Alpha virt. eigenvalues --    0.25664   0.27134   0.28694   0.29044   0.29636
 Alpha virt. eigenvalues --    0.30683   0.31797   0.32036   0.32767   0.33950

 Mulliken charges:
               1
     1  O   -0.467249
     2  N    0.491271
     3  O   -0.504051
     4  C    0.000497
     5  C    0.188871
     6  N   -0.780282
     7  C    0.060269
     8  H    0.180072
     9  C   -0.301429
    10  C   -0.327942
    11  C   -0.321488
    12  C   -0.306664
    13  C   -0.037179
    14  H    0.189955
    15  N   -0.511203
    16  C    0.120009
    17  H    0.295291
    18  H    0.404870
    19  H    0.190190
    20  H    0.161382
    21  H    0.174649
    22  H    0.149361
    23  H    0.199934
    24  H    0.164541
    25  H    0.187062
    26  H    0.150353
    27  H    0.248909
 Sum of Mulliken charges =  -0.00000

 Dipole moment (field-independent basis, Debye):
    X=              5.4165    Y=              4.7977    Z=              1.2742  Tot=              7.3471
 Quadrupole moment (field-independent basis, Debye-Ang):
   XX=           -106.1405   YY=            -79.2237   ZZ=            -81.5025
   XY=             -1.7695   XZ=             -0.1130   YZ=              1.8568

 Normal termination of Gaussian 16 at Sun Jul  2 03:37:10 2023.
