 Gaussian 16, Revision C.02,
 Gaussian 16:  ES64L-G16RevC.02  7-Dec-2021

 ---------------------------------------------------------
 #MP2/6-31G* SCF=Tight Opt=(ModRedun, MaxCycle=20 ) NoSymm
 ---------------------------------------------------------

 --------
 MolName:
 --------
 Symbolic Z-matrix:
 Charge =  0 Multiplicity = 1

 SCF Done:  E(RHF) =  -661.279818772     A.U. after   16 cycles
 E2 =    -0.2037427757D+01 EUMP2 =    -0.66331724652862D+03
 SCF Done:  E(RHF) =  -661.297106410     A.U. after   15 cycles
 E2 =    -0.2032755058D+01 EUMP2 =    -0.66332986146839D+03
 SCF Done:  E(RHF) =  -661.294840209     A.U. after   17 cycles
 E2 =    -0.2033917196D+01 EUMP2 =    -0.66332875740534D+03
 SCF Done:  E(RHF) =  -661.292930599     A.U. after   15 cycles
 E2 =    -0.2035659777D+01 EUMP2 =    -0.66332859037561D+03
 SCF Done:  E(RHF) =  -661.290607803     A.U. after   15 cycles
 E2 =    -0.2035930129D+01 EUMP2 =    -0.66332653793170D+03
 SCF Done:  E(RHF) =  -661.297439965     A.U. after   12 cycles
 E2 =    -0.2033556808D+01 EUMP2 =    -0.66333099677358D+03
 SCF Done:  E(RHF) =  -661.298731303     A.U. after   15 cycles
 E2 =    -0.2034570001D+01 EUMP2 =    -0.66333330130330D+03
 SCF Done:  E(RHF) =  -661.299266095     A.U. after   13 cycles
 E2 =    -0.2034467290D+01 EUMP2 =    -0.66333373338494D+03
 SCF Done:  E(RHF) =  -661.299761705     A.U. after   12 cycles
 E2 =    -0.2034104449D+01 EUMP2 =    -0.66333386615341D+03
 SCF Done:  E(RHF) =  -661.299636165     A.U. after   12 cycles
 E2 =    -0.2034255578D+01 EUMP2 =    -0.66333389174319D+03
 SCF Done:  E(RHF) =  -661.299619750     A.U. after   10 cycles
 E2 =    -0.2034275123D+01 EUMP2 =    -0.66333389487309D+03
 Optimization completed.
    -- Stationary point found.

                          Input orientation:
 ---------------------------------------------------------------------
 Center     Atomic      Atomic             Coordinates (Angstroms)
 Number     Number       Type             X           Y           Z
 ---------------------------------------------------------------------
      1          8           0       -3.474651   -1.442168   -0.197894
      2          7           0       -3.115582   -0.258397   -0.041390
      3          8           0       -3.907133    0.687810    0.134968
      4          6           0       -1.687522   -0.004101   -0.059260
      5          6           0       -1.305595    1.273630    0.248314
      6          7           0       -0.058651    1.762333    0.345263
      7          6           0        1.199584    1.026212    0.339986
      8          1           0        1.838340    1.550846    1.066727
      9          6           0        1.928299    1.035386   -1.002667
     10          6           0        3.321163    0.423119   -0.814659
     11          6           0        3.257329   -0.973503   -0.190694
     12          6           0        2.439525   -0.982795    1.102717
     13          6           0        1.036504   -0.422793    0.844910
     14          1           0        0.446075   -0.398228    1.774826
     15          7           0        0.400631   -1.307637   -0.126619
     16          6           0       -0.839703   -1.118805   -0.440759
     17          1           0       -2.100587    1.994580    0.419931
     18          1           0        0.003953    2.743760    0.588346
     19          1           0        1.345210    0.462149   -1.731194
     20          1           0        2.005248    2.063775   -1.377018
     21          1           0        3.842315    0.384285   -1.778060
     22          1           0        3.912094    1.086373   -0.166981
     23          1           0        2.789999   -1.667865   -0.895827
     24          1           0        4.271976   -1.340534    0.004284
     25          1           0        2.343520   -2.004897    1.483815
     26          1           0        2.938733   -0.388286    1.880321
     27          1           0       -1.268074   -1.823239   -1.154394
 ---------------------------------------------------------------------

 Alpha  occ. eigenvalues --  -20.59218 -20.58884 -15.84662 -15.63970 -15.56327
 Alpha  occ. eigenvalues --  -11.34934 -11.29641 -11.29638 -11.28583 -11.27197
 Alpha  occ. eigenvalues --  -11.23697 -11.23203 -11.22735 -11.22110  -1.57072
 Alpha  occ. eigenvalues --   -1.36690  -1.30871  -1.23181  -1.14689  -1.09831
 Alpha  occ. eigenvalues --   -1.02806  -1.01315  -0.94488  -0.89675  -0.85551
 Alpha  occ. eigenvalues --   -0.82453  -0.78507  -0.77457  -0.75158  -0.71924
 Alpha  occ. eigenvalues --   -0.69856  -0.69344  -0.67781  -0.65045  -0.63724
 Alpha  occ. eigenvalues --   -0.62335  -0.60387  -0.57655  -0.57075  -0.55070
 Alpha  occ. eigenvalues --   -0.54517  -0.50840  -0.49999  -0.48597  -0.48106
 Alpha  occ. eigenvalues --   -0.47387  -0.46196  -0.46001  -0.43624  -0.41571
 Alpha  occ. eigenvalues --   -0.40016  -0.33963
 Alpha virt. eigenvalues --    0.07491   0.11935   0.17349   0.21711   0.23850
 Alpha virt. eigenvalues --    0.25431   0.27104   0.28867   0.28985   0.29679
 Alpha virt. eigenvalues --    0.30556   0.31767   0.31986   0.32714   0.33979

 Mulliken charges:
               1
     1  O   -0.466872
     2  N    0.493456
     3  O   -0.504357
     4  C   -0.004075
     5  C    0.186869
     6  N   -0.780780
     7  C    0.060797
     8  H    0.179627
     9  C   -0.300849
    10  C   -0.328035
    11  C   -0.321202
    12  C   -0.306977
    13  C   -0.038252
    14  H    0.190008
    15  N   -0.504303
    16  C    0.131410
    17  H    0.294015
    18  H    0.404100
    19  H    0.189592
    20  H    0.161554
    21  H    0.174515
    22  H    0.149310
    23  H    0.199595
    24  H    0.164595
    25  H    0.187195
    26  H    0.150821
    27  H    0.238246
 Sum of Mulliken charges =  -0.00000

 Dipole moment (field-independent basis, Debye):
    X=              5.4256    Y=              4.8485    Z=              1.0368  Tot=              7.3499
 Quadrupole moment (field-independent basis, Debye-Ang):
   XX=           -106.0396   YY=            -79.5192   ZZ=            -81.2218
   XY=             -2.2477   XZ=              1.0731   YZ=              2.1906

 Normal termination of Gaussian 16 at Sun Jul  2 04:03:47 2023.
