 Gaussian 16, Revision C.02,
 Gaussian 16:  ES64L-G16RevC.02  7-Dec-2021

 ---------------------------------------------------------
 #MP2/6-31G* SCF=Tight Opt=(ModRedun, MaxCycle=20 ) NoSymm
 ---------------------------------------------------------

 --------
 MolName:
 --------
 Symbolic Z-matrix:
 Charge =  0 Multiplicity = 1

 SCF Done:  E(RHF) =  -661.276520719     A.U. after   16 cycles
 E2 =    -0.2037865826D+01 EUMP2 =    -0.66331438654530D+03
 SCF Done:  E(RHF) =  -661.293697189     A.U. after   15 cycles
 E2 =    -0.2033137333D+01 EUMP2 =    -0.66332683452267D+03
 SCF Done:  E(RHF) =  -661.286980793     A.U. after   17 cycles
 E2 =    -0.2034562521D+01 EUMP2 =    -0.66332154331455D+03
 SCF Done:  E(RHF) =  -661.293108604     A.U. after   15 cycles
 E2 =    -0.2035438493D+01 EUMP2 =    -0.66332854709710D+03
 SCF Done:  E(RHF) =  -661.295718086     A.U. after   14 cycles
 E2 =    -0.2035340139D+01 EUMP2 =    -0.66333105822481D+03
 SCF Done:  E(RHF) =  -661.296869548     A.U. after   13 cycles
 E2 =    -0.2034593640D+01 EUMP2 =    -0.66333146318863D+03
 SCF Done:  E(RHF) =  -661.297239602     A.U. after   12 cycles
 E2 =    -0.2034370241D+01 EUMP2 =    -0.66333160984321D+03
 SCF Done:  E(RHF) =  -661.297159924     A.U. after   11 cycles
 E2 =    -0.2034470808D+01 EUMP2 =    -0.66333163073184D+03
 SCF Done:  E(RHF) =  -661.297029675     A.U. after   11 cycles
 E2 =    -0.2034606650D+01 EUMP2 =    -0.66333163632505D+03
 SCF Done:  E(RHF) =  -661.297022994     A.U. after    9 cycles
 E2 =    -0.2034613606D+01 EUMP2 =    -0.66333163660022D+03
 Optimization completed.
    -- Stationary point found.

                          Input orientation:
 ---------------------------------------------------------------------
 Center     Atomic      Atomic             Coordinates (Angstroms)
 Number     Number       Type             X           Y           Z
 ---------------------------------------------------------------------
      1          8           0       -3.421148   -1.487994   -0.029629
      2          7           0       -3.101462   -0.284138    0.037783
      3          8           0       -3.913366    0.641958    0.226360
      4          6           0       -1.691524    0.015040   -0.108058
      5          6           0       -1.310965    1.285914    0.220678
      6          7           0       -0.061495    1.774643    0.300934
      7          6           0        1.191698    1.028135    0.319329
      8          1           0        1.820220    1.547879    1.058633
      9          6           0        1.947341    1.035354   -1.008378
     10          6           0        3.333832    0.417185   -0.794707
     11          6           0        3.252679   -0.979977   -0.174041
     12          6           0        2.410374   -0.987870    1.103632
     13          6           0        1.015045   -0.420602    0.823072
     14          1           0        0.409761   -0.392893    1.743497
     15          7           0        0.391175   -1.296334   -0.165229
     16          6           0       -0.841326   -1.097767   -0.500284
     17          1           0       -2.105494    1.999719    0.423260
     18          1           0        0.004777    2.753006    0.554491
     19          1           0        1.376632    0.466614   -1.750025
     20          1           0        2.035870    2.064188   -1.378878
     21          1           0        3.873445    0.377533   -1.747850
     22          1           0        3.914889    1.077085   -0.134773
     23          1           0        2.796701   -1.671557   -0.889181
     24          1           0        4.261926   -1.351104    0.040211
     25          1           0        2.302560   -2.010228    1.481088
     26          1           0        2.897975   -0.397507    1.891680
     27          1           0       -1.229102   -1.746284   -1.287645
 ---------------------------------------------------------------------

 Alpha  occ. eigenvalues --  -20.59210 -20.58867 -15.84607 -15.63797 -15.56560
 Alpha  occ. eigenvalues --  -11.34849 -11.29729 -11.29655 -11.28533 -11.27266
 Alpha  occ. eigenvalues --  -11.23666 -11.23199 -11.22781 -11.22131  -1.57023
 Alpha  occ. eigenvalues --   -1.36665  -1.30760  -1.23286  -1.14670  -1.09834
 Alpha  occ. eigenvalues --   -1.02805  -1.01323  -0.94459  -0.89643  -0.85539
 Alpha  occ. eigenvalues --   -0.82447  -0.78397  -0.77506  -0.75092  -0.71817
 Alpha  occ. eigenvalues --   -0.69916  -0.69267  -0.67736  -0.65200  -0.63661
 Alpha  occ. eigenvalues --   -0.62302  -0.60488  -0.57607  -0.57147  -0.55068
 Alpha  occ. eigenvalues --   -0.54447  -0.50914  -0.49865  -0.48529  -0.48097
 Alpha  occ. eigenvalues --   -0.47408  -0.46297  -0.45882  -0.43573  -0.41421
 Alpha  occ. eigenvalues --   -0.40196  -0.34111
 Alpha virt. eigenvalues --    0.07556   0.12063   0.17385   0.21462   0.23478
 Alpha virt. eigenvalues --    0.25215   0.27044   0.28887   0.28980   0.29639
 Alpha virt. eigenvalues --    0.30333   0.31758   0.31959   0.32651   0.33953

 Mulliken charges:
               1
     1  O   -0.466397
     2  N    0.497179
     3  O   -0.503495
     4  C   -0.006384
     5  C    0.183423
     6  N   -0.779700
     7  C    0.060708
     8  H    0.179243
     9  C   -0.300318
    10  C   -0.328130
    11  C   -0.320902
    12  C   -0.307288
    13  C   -0.039740
    14  H    0.190257
    15  N   -0.495612
    16  C    0.136374
    17  H    0.291709
    18  H    0.403247
    19  H    0.189019
    20  H    0.161700
    21  H    0.174405
    22  H    0.149287
    23  H    0.199226
    24  H    0.164667
    25  H    0.187387
    26  H    0.151346
    27  H    0.228791
 Sum of Mulliken charges =  -0.00000

 Dipole moment (field-independent basis, Debye):
    X=              5.4162    Y=              4.8912    Z=              0.7823  Tot=              7.3397
 Quadrupole moment (field-independent basis, Debye-Ang):
   XX=           -105.7277   YY=            -79.7760   ZZ=            -81.0900
   XY=             -2.6741   XZ=              2.2929   YZ=              2.5003

 Normal termination of Gaussian 16 at Sun Jul  2 04:27:21 2023.
