 Gaussian 16, Revision C.02,
 Gaussian 16:  ES64L-G16RevC.02  7-Dec-2021

 ---------------------------------------------------------
 #MP2/6-31G* SCF=Tight Opt=(ModRedun, MaxCycle=20 ) NoSymm
 ---------------------------------------------------------

 --------
 MolName:
 --------
 Symbolic Z-matrix:
 Charge =  0 Multiplicity = 1

 SCF Done:  E(RHF) =  -661.266983350     A.U. after   16 cycles
 E2 =    -0.2038672923D+01 EUMP2 =    -0.66330565627207D+03
 SCF Done:  E(RHF) =  -661.287915888     A.U. after   15 cycles
 E2 =    -0.2034485262D+01 EUMP2 =    -0.66332240115003D+03
 SCF Done:  E(RHF) =  -661.293146022     A.U. after   15 cycles
 E2 =    -0.2034694279D+01 EUMP2 =    -0.66332784030128D+03
 SCF Done:  E(RHF) =  -661.286144190     A.U. after   16 cycles
 E2 =    -0.2037286968D+01 EUMP2 =    -0.66332343115828D+03
 SCF Done:  E(RHF) =  -661.292856484     A.U. after   15 cycles
 E2 =    -0.2037215409D+01 EUMP2 =    -0.66333007189292D+03
 SCF Done:  E(RHF) =  -661.294756989     A.U. after   13 cycles
 E2 =    -0.2036064170D+01 EUMP2 =    -0.66333082115870D+03
 SCF Done:  E(RHF) =  -661.295500109     A.U. after   12 cycles
 E2 =    -0.2035373659D+01 EUMP2 =    -0.66333087376779D+03
 SCF Done:  E(RHF) =  -661.295600019     A.U. after   11 cycles
 E2 =    -0.2035294924D+01 EUMP2 =    -0.66333089494323D+03
 SCF Done:  E(RHF) =  -661.295489760     A.U. after   11 cycles
 E2 =    -0.2035409929D+01 EUMP2 =    -0.66333089968891D+03
 SCF Done:  E(RHF) =  -661.295437087     A.U. after   10 cycles
 E2 =    -0.2035463512D+01 EUMP2 =    -0.66333090059841D+03
 SCF Done:  E(RHF) =  -661.295406114     A.U. after    9 cycles
 E2 =    -0.2035494666D+01 EUMP2 =    -0.66333090077948D+03
 Optimization completed.
    -- Stationary point found.

                          Input orientation:
 ---------------------------------------------------------------------
 Center     Atomic      Atomic             Coordinates (Angstroms)
 Number     Number       Type             X           Y           Z
 ---------------------------------------------------------------------
      1          8           0       -3.496199   -1.264204   -0.731599
      2          7           0       -3.103111   -0.171121   -0.281742
      3          8           0       -3.855272    0.808858   -0.116393
      4          6           0       -1.693710   -0.062912    0.090728
      5          6           0       -1.293994    1.232133    0.336706
      6          7           0       -0.055728    1.726619    0.468426
      7          6           0        1.215978    1.021225    0.395109
      8          1           0        1.883158    1.560721    1.083829
      9          6           0        1.863264    1.030763   -0.987835
     10          6           0        3.270688    0.433287   -0.874387
     11          6           0        3.254091   -0.959621   -0.238980
     12          6           0        2.509503   -0.967336    1.097803
     13          6           0        1.088128   -0.423604    0.907128
     14          1           0        0.542359   -0.405657    1.863021
     15          7           0        0.417519   -1.337327   -0.012082
     16          6           0       -0.843749   -1.180071   -0.270641
     17          1           0       -2.086604    1.969158    0.428677
     18          1           0       -0.005560    2.718140    0.672830
     19          1           0        1.244223    0.443872   -1.674987
     20          1           0        1.907587    2.056448   -1.374729
     21          1           0        3.736698    0.392481   -1.865549
     22          1           0        3.890563    1.106617   -0.265441
     23          1           0        2.752923   -1.662641   -0.911964
     24          1           0        4.281106   -1.317513   -0.099985
     25          1           0        2.444501   -1.987507    1.489709
     26          1           0        3.043747   -0.361425    1.842728
     27          1           0       -1.351090   -2.036361   -0.712390
 ---------------------------------------------------------------------

 Alpha  occ. eigenvalues --  -20.59266 -20.58918 -15.84812 -15.64453 -15.55746
 Alpha  occ. eigenvalues --  -11.35181 -11.29603 -11.29462 -11.28683 -11.27049
 Alpha  occ. eigenvalues --  -11.23808 -11.23231 -11.22618 -11.22066  -1.57175
 Alpha  occ. eigenvalues --   -1.36738  -1.31173  -1.22825  -1.14715  -1.09776
 Alpha  occ. eigenvalues --   -1.02802  -1.01303  -0.94371  -0.89614  -0.85603
 Alpha  occ. eigenvalues --   -0.82419  -0.78768  -0.77347  -0.75222  -0.72152
 Alpha  occ. eigenvalues --   -0.69655  -0.69508  -0.67888  -0.64613  -0.63898
 Alpha  occ. eigenvalues --   -0.62410  -0.60068  -0.57786  -0.56820  -0.55132
 Alpha  occ. eigenvalues --   -0.54709  -0.50635  -0.50219  -0.48690  -0.48081
 Alpha  occ. eigenvalues --   -0.47331  -0.46370  -0.45757  -0.43761  -0.41895
 Alpha  occ. eigenvalues --   -0.39503  -0.33603
 Alpha virt. eigenvalues --    0.07576   0.11412   0.17182   0.21974   0.24381
 Alpha virt. eigenvalues --    0.25723   0.26727   0.28163   0.29188   0.29389
 Alpha virt. eigenvalues --    0.30895   0.31772   0.32234   0.32818   0.33825

 Mulliken charges:
               1
     1  O   -0.467787
     2  N    0.497600
     3  O   -0.501331
     4  C    0.005375
     5  C    0.187205
     6  N   -0.774103
     7  C    0.057783
     8  H    0.181272
     9  C   -0.302814
    10  C   -0.327846
    11  C   -0.322253
    12  C   -0.305771
    13  C   -0.036494
    14  H    0.190458
    15  N   -0.519560
    16  C    0.097542
    17  H    0.294590
    18  H    0.406170
    19  H    0.191441
    20  H    0.161494
    21  H    0.175099
    22  H    0.149564
    23  H    0.200540
    24  H    0.164600
    25  H    0.186992
    26  H    0.149397
    27  H    0.260839
 Sum of Mulliken charges =  -0.00000

 Dipole moment (field-independent basis, Debye):
    X=              5.3555    Y=              4.6414    Z=              1.8308  Tot=              7.3195
 Quadrupole moment (field-independent basis, Debye-Ang):
   XX=           -105.6137   YY=            -78.5736   ZZ=            -82.4753
   XY=             -0.5284   XZ=             -2.7299   YZ=              1.2947

 Normal termination of Gaussian 16 at Sat Jul  1 00:49:05 2023.
