 Gaussian 09, Revision A.01,
 Gaussian 09:  EM64L-G09RevA.01  8-May-2009

 ----------------------------------
 #MP2/6-31G* SCF=Tight Opt=ModRedun
 ----------------------------------

 ---------------------------
 optimization for geometry 0
 ---------------------------
 Symbolic Z-matrix:
 Charge =  0 Multiplicity = 1

 SCF Done:  E(RHF) =  -1078.66337003     A.U. after   15 cycles
 E2 =    -0.1723016779D+01 EUMP2 =    -0.10803863868079D+04
 SCF Done:  E(RHF) =  -1078.66265762     A.U. after   12 cycles
 E2 =    -0.1724064593D+01 EUMP2 =    -0.10803867222175D+04
 SCF Done:  E(RHF) =  -1078.66242376     A.U. after   11 cycles
 E2 =    -0.1724318321D+01 EUMP2 =    -0.10803867420821D+04
 SCF Done:  E(RHF) =  -1078.66237605     A.U. after    9 cycles
 E2 =    -0.1724370497D+01 EUMP2 =    -0.10803867465427D+04
 Optimization completed.
    -- Stationary point found.

                         Standard orientation:
 ---------------------------------------------------------------------
 Center     Atomic      Atomic             Coordinates (Angstroms)
 Number     Number       Type             X           Y           Z
 ---------------------------------------------------------------------
      1          9           0       -1.969296    2.053678    0.000070
      2          6           0       -1.222252    0.944232    0.000026
      3          6           0        0.140035    1.057403   -0.000017
      4          6           0        0.927948   -0.123636   -0.000080
      5          6           0        2.414658   -0.018653   -0.000009
      6          9           0        3.007082   -1.234611   -0.000558
      7          9           0        2.858286    0.654478   -1.086024
      8          9           0        2.858272    0.653495    1.086649
      9          6           0        0.306542   -1.341494   -0.000093
     10          7           0       -1.054171   -1.389971   -0.000061
     11          6           0       -1.930498   -0.312099    0.000001
     12         16           0       -3.570977   -0.506613    0.000030
     13          1           0        0.596855    2.043104   -0.000016
     14          1           0        0.831763   -2.288989   -0.000145
     15          1           0       -1.521476   -2.296386   -0.000091
 ---------------------------------------------------------------------

 The electronic state is 1-A.
 Alpha  occ. eigenvalues --  -91.90341 -26.36693 -26.35745 -26.35743 -26.33317
 Alpha  occ. eigenvalues --  -15.68604 -11.54028 -11.37708 -11.37045 -11.35999
 Alpha  occ. eigenvalues --  -11.31097 -11.30194  -8.91431  -6.59760  -6.59482
 Alpha  occ. eigenvalues --   -6.59358  -1.73933  -1.64940  -1.64574  -1.64244
 Alpha  occ. eigenvalues --   -1.35419  -1.16986  -1.11932  -1.02843  -0.97029
 Alpha  occ. eigenvalues --   -0.92455  -0.88114  -0.84695  -0.83545  -0.83170
 Alpha  occ. eigenvalues --   -0.76844  -0.75728  -0.73690  -0.72108  -0.71443
 Alpha  occ. eigenvalues --   -0.71179  -0.70109  -0.67354  -0.67347  -0.65931
 Alpha  occ. eigenvalues --   -0.63862  -0.62388  -0.60621  -0.59202  -0.52454
 Alpha  occ. eigenvalues --   -0.46418  -0.43141  -0.33993  -0.30858
 Alpha virt. eigenvalues --    0.04609   0.08882   0.17796   0.24622   0.25324
 Alpha virt. eigenvalues --    0.26624   0.26694   0.30186   0.33899   0.35421
 Alpha virt. eigenvalues --    0.39447   0.40850   0.42722   0.43151   0.46780

 Mulliken atomic charges:
              1
     1  F   -0.360344
     2  C    0.405601
     3  C   -0.173086
     4  C   -0.300530
     5  C    1.207192
     6  F   -0.383786
     7  F   -0.373305
     8  F   -0.373304
     9  C    0.172247
    10  N   -0.779098
    11  C    0.182091
    12  S   -0.232918
    13  H    0.280223
    14  H    0.287616
    15  H    0.441399
 Sum of Mulliken atomic charges =   0.00000

 Dipole moment (field-independent basis, Debye):
    X=              3.5612    Y=             -2.6289    Z=             -0.0004  Tot=              4.4264
 Quadrupole moment (field-independent basis, Debye-Ang):
   XX=            -99.0035   YY=            -64.7097   ZZ=            -75.3006
   XY=              1.9621   XZ=             -0.0001   YZ=              0.0004

 Normal termination of Gaussian 09 at Fri Sep 24 07:57:25 2021.
