 Gaussian 09, Revision A.01,
 Gaussian 09:  EM64L-G09RevA.01  8-May-2009

 ----------------------
 #HF/6-31G* Test NoSymm
 ----------------------

 --------
 MolName:
 --------
 Symbolic Z-matrix:
 Charge =  0 Multiplicity = 1

                          Input orientation:
 ---------------------------------------------------------------------
 Center     Atomic      Atomic             Coordinates (Angstroms)
 Number     Number       Type             X           Y           Z
 ---------------------------------------------------------------------
      1          9           0       -1.969300    2.053680    0.000070
      2          6           0       -1.222250    0.944230    0.000030
      3          6           0        0.140030    1.057400   -0.000020
      4          6           0        0.927950   -0.123640   -0.000080
      5          6           0        2.414660   -0.018650   -0.000010
      6          9           0        3.007080   -1.234610   -0.000560
      7          9           0        2.858290    0.654480   -1.086020
      8          9           0        2.858270    0.653500    1.086650
      9          6           0        0.306540   -1.341490   -0.000090
     10          7           0       -1.054170   -1.389970   -0.000060
     11          6           0       -1.930500   -0.312100    0.000000
     12         16           0       -3.570980   -0.506610    0.000030
     13          1           0        0.596860    2.043100   -0.000020
     14          1           0        0.831760   -2.288990   -0.000150
     15          1           0       -1.521480   -2.296390   -0.000090
 ---------------------------------------------------------------------

 SCF Done:  E(RHF) =  -1078.66237631     A.U. after   15 cycles

 Alpha  occ. eigenvalues --  -91.90341 -26.36693 -26.35745 -26.35743 -26.33317
 Alpha  occ. eigenvalues --  -15.68604 -11.54028 -11.37708 -11.37045 -11.35999
 Alpha  occ. eigenvalues --  -11.31097 -11.30194  -8.91431  -6.59760  -6.59483
 Alpha  occ. eigenvalues --   -6.59358  -1.73933  -1.64940  -1.64573  -1.64244
 Alpha  occ. eigenvalues --   -1.35419  -1.16986  -1.11932  -1.02843  -0.97029
 Alpha  occ. eigenvalues --   -0.92455  -0.88114  -0.84695  -0.83545  -0.83170
 Alpha  occ. eigenvalues --   -0.76844  -0.75728  -0.73689  -0.72108  -0.71443
 Alpha  occ. eigenvalues --   -0.71179  -0.70109  -0.67354  -0.67347  -0.65931
 Alpha  occ. eigenvalues --   -0.63862  -0.62388  -0.60620  -0.59202  -0.52454
 Alpha  occ. eigenvalues --   -0.46418  -0.43141  -0.33993  -0.30858
 Alpha virt. eigenvalues --    0.04609   0.08882   0.17796   0.24622   0.25324
 Alpha virt. eigenvalues --    0.26624   0.26695   0.30186   0.33900   0.35421
 Alpha virt. eigenvalues --    0.39447   0.40850   0.42722   0.43151   0.46780

 Mulliken atomic charges:
              1
     1  F   -0.360348
     2  C    0.405601
     3  C   -0.173085
     4  C   -0.300532
     5  C    1.207194
     6  F   -0.383786
     7  F   -0.373301
     8  F   -0.373305
     9  C    0.172249
    10  N   -0.779102
    11  C    0.182094
    12  S   -0.232914
    13  H    0.280223
    14  H    0.287615
    15  H    0.441400
 Sum of Mulliken atomic charges =   0.00000

 Dipole moment (field-independent basis, Debye):
    X=              3.5612    Y=             -2.6289    Z=             -0.0004  Tot=              4.4264
 Quadrupole moment (field-independent basis, Debye-Ang):
   XX=            -99.0032   YY=            -64.7098   ZZ=            -75.3005
   XY=              1.9623   XZ=             -0.0002   YZ=              0.0003

 Normal termination of Gaussian 09 at Fri Sep 24 07:58:02 2021.
