 Gaussian 16, Revision C.02,
 Gaussian 16:  ES64L-G16RevC.02  7-Dec-2021

 ---------------------------------------------------------
 #MP2/6-31G* SCF=Tight Opt=(ModRedun, MaxCycle=20 ) NoSymm
 ---------------------------------------------------------

 --------
 MolName:
 --------
 Symbolic Z-matrix:
 Charge =  0 Multiplicity = 1

 SCF Done:  E(RHF) =  -661.281411102     A.U. after   16 cycles
 E2 =    -0.2035122198D+01 EUMP2 =    -0.66331653330059D+03
 SCF Done:  E(RHF) =  -661.296079188     A.U. after   15 cycles
 E2 =    -0.2031936000D+01 EUMP2 =    -0.66332801518849D+03
 SCF Done:  E(RHF) =  -661.293682624     A.U. after   16 cycles
 E2 =    -0.2032855290D+01 EUMP2 =    -0.66332653791330D+03
 SCF Done:  E(RHF) =  -661.291698722     A.U. after   16 cycles
 E2 =    -0.2034116085D+01 EUMP2 =    -0.66332581480757D+03
 SCF Done:  E(RHF) =  -661.289389486     A.U. after   15 cycles
 E2 =    -0.2034489871D+01 EUMP2 =    -0.66332387935709D+03
 SCF Done:  E(RHF) =  -661.296488970     A.U. after   12 cycles
 E2 =    -0.2032444800D+01 EUMP2 =    -0.66332893377068D+03
 SCF Done:  E(RHF) =  -661.297318245     A.U. after   15 cycles
 E2 =    -0.2033625714D+01 EUMP2 =    -0.66333094395989D+03
 SCF Done:  E(RHF) =  -661.297819387     A.U. after   13 cycles
 E2 =    -0.2033490537D+01 EUMP2 =    -0.66333130992450D+03
 SCF Done:  E(RHF) =  -661.298286158     A.U. after   12 cycles
 E2 =    -0.2033148035D+01 EUMP2 =    -0.66333143419306D+03
 SCF Done:  E(RHF) =  -661.298274180     A.U. after   12 cycles
 E2 =    -0.2033199371D+01 EUMP2 =    -0.66333147355115D+03
 SCF Done:  E(RHF) =  -661.298213444     A.U. after   11 cycles
 E2 =    -0.2033272277D+01 EUMP2 =    -0.66333148572113D+03
 SCF Done:  E(RHF) =  -661.298194213     A.U. after   10 cycles
 E2 =    -0.2033292700D+01 EUMP2 =    -0.66333148691282D+03
 Optimization completed.
    -- Stationary point found.

                          Input orientation:
 ---------------------------------------------------------------------
 Center     Atomic      Atomic             Coordinates (Angstroms)
 Number     Number       Type             X           Y           Z
 ---------------------------------------------------------------------
      1          8           0       -3.490153   -1.388990   -0.340495
      2          7           0       -3.115787   -0.224606   -0.102080
      3          8           0       -3.898063    0.728392    0.075155
      4          6           0       -1.676888    0.003843   -0.015746
      5          6           0       -1.307860    1.234663    0.265973
      6          7           0       -0.064196    1.741858    0.371728
      7          6           0        1.202923    1.023789    0.349915
      8          1           0        1.846334    1.555397    1.067512
      9          6           0        1.916213    1.032481   -1.000507
     10          6           0        3.313096    0.425260   -0.825817
     11          6           0        3.260508   -0.970145   -0.197718
     12          6           0        2.456664   -0.979991    1.104531
     13          6           0        1.050418   -0.422252    0.860200
     14          1           0        0.467751   -0.399874    1.794465
     15          7           0        0.407221   -1.309782   -0.104799
     16          6           0       -0.836933   -1.119288   -0.402992
     17          1           0       -2.099286    1.963637    0.423975
     18          1           0       -0.016260    2.723722    0.613696
     19          1           0        1.327682    0.455832   -1.721931
     20          1           0        1.985218    2.060404   -1.377573
     21          1           0        3.824564    0.385529   -1.794356
     22          1           0        3.908543    1.091950   -0.185884
     23          1           0        2.787978   -1.667608   -0.896430
     24          1           0        4.278333   -1.333703   -0.013104
     25          1           0        2.367526   -2.001985    1.487607
     26          1           0        2.962721   -0.383285    1.875987
     27          1           0       -1.300286   -1.861277   -1.052324
 ---------------------------------------------------------------------

 Alpha  occ. eigenvalues --  -20.59685 -20.59343 -15.85000 -15.63242 -15.56444
 Alpha  occ. eigenvalues --  -11.33813 -11.29665 -11.29355 -11.28390 -11.27084
 Alpha  occ. eigenvalues --  -11.23530 -11.23104 -11.22668 -11.22056  -1.57503
 Alpha  occ. eigenvalues --   -1.37123  -1.30547  -1.23127  -1.15238  -1.10071
 Alpha  occ. eigenvalues --   -1.02641  -1.01191  -0.94804  -0.89780  -0.85484
 Alpha  occ. eigenvalues --   -0.82503  -0.78668  -0.77411  -0.75314  -0.71748
 Alpha  occ. eigenvalues --   -0.70120  -0.69720  -0.67783  -0.64957  -0.63705
 Alpha  occ. eigenvalues --   -0.62103  -0.60373  -0.57545  -0.56941  -0.55003
 Alpha  occ. eigenvalues --   -0.54510  -0.50818  -0.50214  -0.48982  -0.48110
 Alpha  occ. eigenvalues --   -0.47591  -0.46127  -0.45999  -0.43935  -0.41599
 Alpha  occ. eigenvalues --   -0.39981  -0.34460
 Alpha virt. eigenvalues --    0.07630   0.11900   0.17571   0.21919   0.24217
 Alpha virt. eigenvalues --    0.25959   0.27249   0.28770   0.29122   0.29852
 Alpha virt. eigenvalues --    0.30821   0.31845   0.32132   0.32824   0.34047

 Mulliken charges:
               1
     1  O   -0.462193
     2  N    0.487436
     3  O   -0.498142
     4  C    0.027962
     5  C    0.171127
     6  N   -0.793872
     7  C    0.064116
     8  H    0.178168
     9  C   -0.300716
    10  C   -0.327941
    11  C   -0.321580
    12  C   -0.306271
    13  C   -0.040645
    14  H    0.190483
    15  N   -0.502783
    16  C    0.118914
    17  H    0.293094
    18  H    0.401484
    19  H    0.187977
    20  H    0.161629
    21  H    0.174034
    22  H    0.149250
    23  H    0.198867
    24  H    0.164435
    25  H    0.186006
    26  H    0.150943
    27  H    0.248218
 Sum of Mulliken charges =  -0.00000

 Dipole moment (field-independent basis, Debye):
    X=              5.1587    Y=              4.5173    Z=              1.2213  Tot=              6.9649
 Quadrupole moment (field-independent basis, Debye-Ang):
   XX=           -105.2976   YY=            -79.7103   ZZ=            -81.3443
   XY=             -1.6564   XZ=              0.1603   YZ=              1.8307

 Normal termination of Gaussian 16 at Sat Jul  1 09:57:50 2023.
