 Gaussian 16, Revision C.02,
 Gaussian 16:  ES64L-G16RevC.02  7-Dec-2021

 ---------------------------------------------------------
 #MP2/6-31G* SCF=Tight Opt=(ModRedun, MaxCycle=20 ) NoSymm
 ---------------------------------------------------------

 --------
 MolName:
 --------
 Symbolic Z-matrix:
 Charge =  0 Multiplicity = 1

 SCF Done:  E(RHF) =  -661.282896069     A.U. after   16 cycles
 E2 =    -0.2035835457D+01 EUMP2 =    -0.66331873152586D+03
 SCF Done:  E(RHF) =  -661.297838741     A.U. after   15 cycles
 E2 =    -0.2032497286D+01 EUMP2 =    -0.66333033602740D+03
 SCF Done:  E(RHF) =  -661.296192710     A.U. after   15 cycles
 E2 =    -0.2033324503D+01 EUMP2 =    -0.66332951721345D+03
 SCF Done:  E(RHF) =  -661.293217557     A.U. after   16 cycles
 E2 =    -0.2034748801D+01 EUMP2 =    -0.66332796635863D+03
 SCF Done:  E(RHF) =  -661.291310941     A.U. after   15 cycles
 E2 =    -0.2035077203D+01 EUMP2 =    -0.66332638814326D+03
 SCF Done:  E(RHF) =  -661.298359277     A.U. after   12 cycles
 E2 =    -0.2033031560D+01 EUMP2 =    -0.66333139083645D+03
 SCF Done:  E(RHF) =  -661.299352409     A.U. after   15 cycles
 E2 =    -0.2034062178D+01 EUMP2 =    -0.66333341458683D+03
 SCF Done:  E(RHF) =  -661.299750755     A.U. after   13 cycles
 E2 =    -0.2034005264D+01 EUMP2 =    -0.66333375601854D+03
 SCF Done:  E(RHF) =  -661.300159190     A.U. after   12 cycles
 E2 =    -0.2033700434D+01 EUMP2 =    -0.66333385962384D+03
 SCF Done:  E(RHF) =  -661.300154225     A.U. after   12 cycles
 E2 =    -0.2033738292D+01 EUMP2 =    -0.66333389251669D+03
 SCF Done:  E(RHF) =  -661.300095849     A.U. after   11 cycles
 E2 =    -0.2033804307D+01 EUMP2 =    -0.66333390015588D+03
 SCF Done:  E(RHF) =  -661.300087639     A.U. after   10 cycles
 E2 =    -0.2033813597D+01 EUMP2 =    -0.66333390123630D+03
 Optimization completed.
    -- Stationary point found.

                          Input orientation:
 ---------------------------------------------------------------------
 Center     Atomic      Atomic             Coordinates (Angstroms)
 Number     Number       Type             X           Y           Z
 ---------------------------------------------------------------------
      1          8           0       -3.498574   -1.389657   -0.354986
      2          7           0       -3.118453   -0.228252   -0.110116
      3          8           0       -3.896767    0.728843    0.065112
      4          6           0       -1.681789   -0.009848   -0.012768
      5          6           0       -1.304609    1.247839    0.270554
      6          7           0       -0.060622    1.746045    0.379001
      7          6           0        1.204357    1.023974    0.354515
      8          1           0        1.850052    1.554351    1.070845
      9          6           0        1.912563    1.033610   -0.998723
     10          6           0        3.310187    0.426620   -0.829436
     11          6           0        3.259914   -0.969030   -0.201858
     12          6           0        2.460671   -0.978984    1.103113
     13          6           0        1.052695   -0.423270    0.862783
     14          1           0        0.473172   -0.401260    1.799179
     15          7           0        0.407689   -1.313826   -0.097608
     16          6           0       -0.838096   -1.128745   -0.394336
     17          1           0       -2.097664    1.975850    0.421208
     18          1           0       -0.007210    2.729712    0.614106
     19          1           0        1.321046    0.456478   -1.717368
     20          1           0        1.980071    2.061477   -1.376293
     21          1           0        3.817760    0.387522   -1.800046
     22          1           0        3.907936    1.093187   -0.191527
     23          1           0        2.784667   -1.666244   -0.898959
     24          1           0        4.278421   -1.332590   -0.021057
     25          1           0        2.373395   -2.000864    1.486794
     26          1           0        2.968792   -0.381562    1.872676
     27          1           0       -1.300585   -1.877379   -1.036816
 ---------------------------------------------------------------------

 Alpha  occ. eigenvalues --  -20.59461 -20.59123 -15.84863 -15.63688 -15.56279
 Alpha  occ. eigenvalues --  -11.34424 -11.29613 -11.29489 -11.28513 -11.27109
 Alpha  occ. eigenvalues --  -11.23629 -11.23156 -11.22680 -11.22073  -1.57310
 Alpha  occ. eigenvalues --   -1.36916  -1.30752  -1.23102  -1.14953  -1.09954
 Alpha  occ. eigenvalues --   -1.02722  -1.01252  -0.94632  -0.89738  -0.85526
 Alpha  occ. eigenvalues --   -0.82474  -0.78631  -0.77408  -0.75266  -0.71896
 Alpha  occ. eigenvalues --   -0.69945  -0.69578  -0.67800  -0.64918  -0.63743
 Alpha  occ. eigenvalues --   -0.62242  -0.60337  -0.57620  -0.56974  -0.55042
 Alpha  occ. eigenvalues --   -0.54545  -0.50780  -0.50162  -0.48818  -0.48104
 Alpha  occ. eigenvalues --   -0.47485  -0.46138  -0.46027  -0.43806  -0.41647
 Alpha  occ. eigenvalues --   -0.39917  -0.34142
 Alpha virt. eigenvalues --    0.07550   0.11846   0.17442   0.21884   0.24166
 Alpha virt. eigenvalues --    0.25812   0.27189   0.28735   0.29083   0.29742
 Alpha virt. eigenvalues --    0.30753   0.31820   0.32084   0.32796   0.33998

 Mulliken charges:
               1
     1  O   -0.464703
     2  N    0.489399
     3  O   -0.501096
     4  C    0.013152
     5  C    0.180956
     6  N   -0.787171
     7  C    0.062230
     8  H    0.179134
     9  C   -0.301070
    10  C   -0.327942
    11  C   -0.321539
    12  C   -0.306463
    13  C   -0.038920
    14  H    0.190245
    15  N   -0.506994
    16  C    0.119516
    17  H    0.294200
    18  H    0.403187
    19  H    0.189077
    20  H    0.161502
    21  H    0.174340
    22  H    0.149307
    23  H    0.199403
    24  H    0.164490
    25  H    0.186533
    26  H    0.150650
    27  H    0.248579
 Sum of Mulliken charges =  -0.00000

 Dipole moment (field-independent basis, Debye):
    X=              5.2878    Y=              4.6558    Z=              1.2497  Tot=              7.1554
 Quadrupole moment (field-independent basis, Debye-Ang):
   XX=           -105.7201   YY=            -79.4676   ZZ=            -81.4249
   XY=             -1.7088   XZ=              0.0158   YZ=              1.8432

 Normal termination of Gaussian 16 at Sat Jul  1 09:29:42 2023.
