 Gaussian 16, Revision C.02,
 Gaussian 16:  ES64L-G16RevC.02  7-Dec-2021

 ---------------------------------------------------------
 #MP2/6-31G* SCF=Tight Opt=(ModRedun, MaxCycle=20 ) NoSymm
 ---------------------------------------------------------

 --------
 MolName:
 --------
 Symbolic Z-matrix:
 Charge =  0 Multiplicity = 1

 SCF Done:  E(RHF) =  -661.282692813     A.U. after   16 cycles
 E2 =    -0.2036549895D+01 EUMP2 =    -0.66331924270793D+03
 SCF Done:  E(RHF) =  -661.297950875     A.U. after   15 cycles
 E2 =    -0.2033034896D+01 EUMP2 =    -0.66333098577114D+03
 SCF Done:  E(RHF) =  -661.297159951     A.U. after   15 cycles
 E2 =    -0.2033730222D+01 EUMP2 =    -0.66333089017294D+03
 SCF Done:  E(RHF) =  -661.292995543     A.U. after   16 cycles
 E2 =    -0.2035338413D+01 EUMP2 =    -0.66332833395570D+03
 SCF Done:  E(RHF) =  -661.291537230     A.U. after   15 cycles
 E2 =    -0.2035612440D+01 EUMP2 =    -0.66332714966961D+03
 SCF Done:  E(RHF) =  -661.298620958     A.U. after   12 cycles
 E2 =    -0.2033576152D+01 EUMP2 =    -0.66333219711001D+03
 SCF Done:  E(RHF) =  -661.299666239     A.U. after   15 cycles
 E2 =    -0.2034549722D+01 EUMP2 =    -0.66333421596057D+03
 SCF Done:  E(RHF) =  -661.300061823     A.U. after   13 cycles
 E2 =    -0.2034474714D+01 EUMP2 =    -0.66333453653674D+03
 SCF Done:  E(RHF) =  -661.300432329     A.U. after   12 cycles
 E2 =    -0.2034187092D+01 EUMP2 =    -0.66333461942085D+03
 SCF Done:  E(RHF) =  -661.300415721     A.U. after   11 cycles
 E2 =    -0.2034227941D+01 EUMP2 =    -0.66333464366218D+03
 SCF Done:  E(RHF) =  -661.300363649     A.U. after   11 cycles
 E2 =    -0.2034285078D+01 EUMP2 =    -0.66333464872697D+03
 SCF Done:  E(RHF) =  -661.300360369     A.U. after   10 cycles
 E2 =    -0.2034289023D+01 EUMP2 =    -0.66333464939229D+03
 Optimization completed.
    -- Stationary point found.

                          Input orientation:
 ---------------------------------------------------------------------
 Center     Atomic      Atomic             Coordinates (Angstroms)
 Number     Number       Type             X           Y           Z
 ---------------------------------------------------------------------
      1          8           0       -3.506790   -1.390362   -0.370271
      2          7           0       -3.121048   -0.232178   -0.118129
      3          8           0       -3.895312    0.728852    0.056018
      4          6           0       -1.686593   -0.023675   -0.009722
      5          6           0       -1.301313    1.260892    0.275110
      6          7           0       -0.057012    1.750385    0.385959
      7          6           0        1.205723    1.024091    0.359090
      8          1           0        1.853590    1.553093    1.074343
      9          6           0        1.909124    1.034849   -0.996788
     10          6           0        3.307443    0.428086   -0.832687
     11          6           0        3.259352   -0.967888   -0.205823
     12          6           0        2.464443   -0.978119    1.101682
     13          6           0        1.054786   -0.424420    0.865141
     14          1           0        0.478241   -0.402888    1.803555
     15          7           0        0.408215   -1.317886   -0.090899
     16          6           0       -0.839115   -1.138102   -0.386315
     17          1           0       -2.096004    1.987827    0.418903
     18          1           0        0.001849    2.735538    0.615247
     19          1           0        1.314797    0.457328   -1.712847
     20          1           0        1.975190    2.062710   -1.374694
     21          1           0        3.811322    0.389741   -1.805247
     22          1           0        3.907344    1.094457   -0.196604
     23          1           0        2.781541   -1.664762   -0.901490
     24          1           0        4.278487   -1.331470   -0.028668
     25          1           0        2.378960   -1.999928    1.485819
     26          1           0        2.974448   -0.380070    1.869529
     27          1           0       -1.300662   -1.893083   -1.022214
 ---------------------------------------------------------------------

 Alpha  occ. eigenvalues --  -20.59236 -20.58903 -15.84722 -15.64137 -15.56111
 Alpha  occ. eigenvalues --  -11.35019 -11.29622 -11.29559 -11.28628 -11.27134
 Alpha  occ. eigenvalues --  -11.23728 -11.23208 -11.22691 -11.22089  -1.57116
 Alpha  occ. eigenvalues --   -1.36709  -1.30977  -1.23066  -1.14703  -1.09818
 Alpha  occ. eigenvalues --   -1.02806  -1.01308  -0.94481  -0.89685  -0.85565
 Alpha  occ. eigenvalues --   -0.82448  -0.78608  -0.77412  -0.75202  -0.72019
 Alpha  occ. eigenvalues --   -0.69771  -0.69438  -0.67820  -0.64893  -0.63778
 Alpha  occ. eigenvalues --   -0.62367  -0.60282  -0.57701  -0.57001  -0.55077
 Alpha  occ. eigenvalues --   -0.54582  -0.50761  -0.50108  -0.48656  -0.48102
 Alpha  occ. eigenvalues --   -0.47372  -0.46146  -0.46045  -0.43677  -0.41695
 Alpha  occ. eigenvalues --   -0.39847  -0.33829
 Alpha virt. eigenvalues --    0.07464   0.11799   0.17307   0.21848   0.24113
 Alpha virt. eigenvalues --    0.25665   0.27134   0.28695   0.29044   0.29635
 Alpha virt. eigenvalues --    0.30683   0.31798   0.32036   0.32767   0.33951

 Mulliken charges:
               1
     1  O   -0.467247
     2  N    0.491315
     3  O   -0.504070
     4  C    0.000430
     5  C    0.188875
     6  N   -0.780266
     7  C    0.060250
     8  H    0.180084
     9  C   -0.301421
    10  C   -0.327944
    11  C   -0.321493
    12  C   -0.306656
    13  C   -0.037173
    14  H    0.189952
    15  N   -0.511210
    16  C    0.120032
    17  H    0.295299
    18  H    0.404873
    19  H    0.190186
    20  H    0.161383
    21  H    0.174645
    22  H    0.149360
    23  H    0.199944
    24  H    0.164540
    25  H    0.187062
    26  H    0.150345
    27  H    0.248905
 Sum of Mulliken charges =  -0.00000

 Dipole moment (field-independent basis, Debye):
    X=              5.4159    Y=              4.7961    Z=              1.2802  Tot=              7.3467
 Quadrupole moment (field-independent basis, Debye-Ang):
   XX=           -106.1408   YY=            -79.2235   ZZ=            -81.5009
   XY=             -1.7653   XZ=             -0.1279   YZ=              1.8584

 Normal termination of Gaussian 16 at Sat Jul  1 08:17:26 2023.
