 Gaussian 16, Revision C.02,
 Gaussian 16:  ES64L-G16RevC.02  7-Dec-2021

 ---------------------------------------------------------
 #MP2/6-31G* SCF=Tight Opt=(ModRedun, MaxCycle=20 ) NoSymm
 ---------------------------------------------------------

 --------
 MolName:
 --------
 Symbolic Z-matrix:
 Charge =  0 Multiplicity = 1

 SCF Done:  E(RHF) =  -661.281047904     A.U. after   16 cycles
 E2 =    -0.2037261102D+01 EUMP2 =    -0.66331830900584D+03
 SCF Done:  E(RHF) =  -661.296659756     A.U. after   14 cycles
 E2 =    -0.2033542193D+01 EUMP2 =    -0.66333020194917D+03
 SCF Done:  E(RHF) =  -661.296810962     A.U. after   15 cycles
 E2 =    -0.2034066680D+01 EUMP2 =    -0.66333087764179D+03
 SCF Done:  E(RHF) =  -661.291187806     A.U. after   17 cycles
 E2 =    -0.2035901913D+01 EUMP2 =    -0.66332708971971D+03
 SCF Done:  E(RHF) =  -661.297830974     A.U. after   14 cycles
 E2 =    -0.2035615506D+01 EUMP2 =    -0.66333344647961D+03
 SCF Done:  E(RHF) =  -661.298679867     A.U. after   14 cycles
 E2 =    -0.2035189648D+01 EUMP2 =    -0.66333386951481D+03
 SCF Done:  E(RHF) =  -661.299317795     A.U. after   12 cycles
 E2 =    -0.2034627883D+01 EUMP2 =    -0.66333394567764D+03
 SCF Done:  E(RHF) =  -661.299450938     A.U. after   11 cycles
 E2 =    -0.2034513119D+01 EUMP2 =    -0.66333396405718D+03
 SCF Done:  E(RHF) =  -661.299353924     A.U. after   10 cycles
 E2 =    -0.2034612961D+01 EUMP2 =    -0.66333396688505D+03
 SCF Done:  E(RHF) =  -661.299258858     A.U. after   10 cycles
 E2 =    -0.2034708475D+01 EUMP2 =    -0.66333396733328D+03
 Optimization completed.
    -- Stationary point found.

                          Input orientation:
 ---------------------------------------------------------------------
 Center     Atomic      Atomic             Coordinates (Angstroms)
 Number     Number       Type             X           Y           Z
 ---------------------------------------------------------------------
      1          8           0       -3.515336   -1.389160   -0.389957
      2          7           0       -3.123823   -0.234639   -0.129457
      3          8           0       -3.893713    0.730434    0.044074
      4          6           0       -1.691583   -0.036503   -0.008788
      5          6           0       -1.297919    1.274803    0.277731
      6          7           0       -0.053228    1.755337    0.391626
      7          6           0        1.206934    1.024131    0.363795
      8          1           0        1.856448    1.551446    1.078653
      9          6           0        1.906976    1.035740   -0.993957
     10          6           0        3.305559    0.428650   -0.833524
     11          6           0        3.258430   -0.967643   -0.207437
     12          6           0        2.466440   -0.977886    1.101736
     13          6           0        1.055579   -0.425613    0.867501
     14          1           0        0.481038   -0.404273    1.807327
     15          7           0        0.408154   -1.321660   -0.084934
     16          6           0       -0.840301   -1.146529   -0.380319
     17          1           0       -2.094119    2.000855    0.414377
     18          1           0        0.011262    2.741613    0.616378
     19          1           0        1.310385    0.458066   -1.708044
     20          1           0        1.972398    2.063570   -1.372116
     21          1           0        3.806783    0.390878   -1.807471
     22          1           0        3.907176    1.094590   -0.198632
     23          1           0        2.778539   -1.663978   -0.902184
     24          1           0        4.277846   -1.331650   -0.032835
     25          1           0        2.381923   -1.999603    1.486194
     26          1           0        2.977736   -0.379469    1.868454
     27          1           0       -1.300592   -1.907497   -1.010180
 ---------------------------------------------------------------------

 Alpha  occ. eigenvalues --  -20.59011 -20.58684 -15.84579 -15.64587 -15.55941
 Alpha  occ. eigenvalues --  -11.35594 -11.29755 -11.29505 -11.28733 -11.27158
 Alpha  occ. eigenvalues --  -11.23825 -11.23258 -11.22702 -11.22104  -1.56925
 Alpha  occ. eigenvalues --   -1.36505  -1.31218  -1.23020  -1.14487  -1.09665
 Alpha  occ. eigenvalues --   -1.02892  -1.01357  -0.94352  -0.89622  -0.85601
 Alpha  occ. eigenvalues --   -0.82426  -0.78599  -0.77420  -0.75130  -0.72115
 Alpha  occ. eigenvalues --   -0.69598  -0.69302  -0.67842  -0.64882  -0.63811
 Alpha  occ. eigenvalues --   -0.62478  -0.60206  -0.57785  -0.57022  -0.55110
 Alpha  occ. eigenvalues --   -0.54619  -0.50755  -0.50059  -0.48502  -0.48095
 Alpha  occ. eigenvalues --   -0.47258  -0.46153  -0.46049  -0.43550  -0.41744
 Alpha  occ. eigenvalues --   -0.39772  -0.33523
 Alpha virt. eigenvalues --    0.07374   0.11759   0.17166   0.21811   0.24060
 Alpha virt. eigenvalues --    0.25518   0.27080   0.28649   0.29004   0.29532
 Alpha virt. eigenvalues --    0.30610   0.31777   0.31989   0.32737   0.33904

 Mulliken charges:
               1
     1  O   -0.469802
     2  N    0.493173
     3  O   -0.507047
     4  C   -0.010318
     5  C    0.195032
     6  N   -0.773202
     7  C    0.058182
     8  H    0.181013
     9  C   -0.301763
    10  C   -0.327949
    11  C   -0.321442
    12  C   -0.306850
    13  C   -0.035401
    14  H    0.189601
    15  N   -0.515407
    16  C    0.120454
    17  H    0.296382
    18  H    0.406535
    19  H    0.191301
    20  H    0.161279
    21  H    0.174945
    22  H    0.149409
    23  H    0.200487
    24  H    0.164586
    25  H    0.187589
    26  H    0.150028
    27  H    0.249184
 Sum of Mulliken charges =  -0.00000

 Dipole moment (field-independent basis, Debye):
    X=              5.5434    Y=              4.9353    Z=              1.3166  Tot=              7.5379
 Quadrupole moment (field-independent basis, Debye-Ang):
   XX=           -106.5621   YY=            -78.9727   ZZ=            -81.5748
   XY=             -1.8141   XZ=             -0.2932   YZ=              1.8721

 Normal termination of Gaussian 16 at Sat Jul  1 08:39:23 2023.
