 Gaussian 16, Revision C.02,
 Gaussian 16:  ES64L-G16RevC.02  7-Dec-2021

 ---------------------------------------------------------
 #MP2/6-31G* SCF=Tight Opt=(ModRedun, MaxCycle=20 ) NoSymm
 ---------------------------------------------------------

 --------
 MolName:
 --------
 Symbolic Z-matrix:
 Charge =  0 Multiplicity = 1

 SCF Done:  E(RHF) =  -661.278169040     A.U. after   16 cycles
 E2 =    -0.2037957799D+01 EUMP2 =    -0.66331612683930D+03
 SCF Done:  E(RHF) =  -661.294169761     A.U. after   14 cycles
 E2 =    -0.2034012754D+01 EUMP2 =    -0.66332818251533D+03
 SCF Done:  E(RHF) =  -661.295302530     A.U. after   15 cycles
 E2 =    -0.2034335019D+01 EUMP2 =    -0.66332963754931D+03
 SCF Done:  E(RHF) =  -661.287844172     A.U. after   17 cycles
 E2 =    -0.2036482547D+01 EUMP2 =    -0.66332432671900D+03
 SCF Done:  E(RHF) =  -661.295899246     A.U. after   14 cycles
 E2 =    -0.2035874679D+01 EUMP2 =    -0.66333177392482D+03
 SCF Done:  E(RHF) =  -661.296593965     A.U. after   13 cycles
 E2 =    -0.2035396043D+01 EUMP2 =    -0.66333199000849D+03
 SCF Done:  E(RHF) =  -661.297095232     A.U. after   12 cycles
 E2 =    -0.2034954868D+01 EUMP2 =    -0.66333205009969D+03
 SCF Done:  E(RHF) =  -661.297105678     A.U. after   11 cycles
 E2 =    -0.2034953079D+01 EUMP2 =    -0.66333205875741D+03
 SCF Done:  E(RHF) =  -661.297032480     A.U. after   10 cycles
 E2 =    -0.2035027805D+01 EUMP2 =    -0.66333206028519D+03
 SCF Done:  E(RHF) =  -661.296975961     A.U. after    9 cycles
 E2 =    -0.2035084470D+01 EUMP2 =    -0.66333206043179D+03
 Optimization completed.
    -- Stationary point found.

                          Input orientation:
 ---------------------------------------------------------------------
 Center     Atomic      Atomic             Coordinates (Angstroms)
 Number     Number       Type             X           Y           Z
 ---------------------------------------------------------------------
      1          8           0       -3.523314   -1.388219   -0.410409
      2          7           0       -3.126388   -0.237496   -0.140628
      3          8           0       -3.892009    0.731491    0.032517
      4          6           0       -1.696509   -0.049675   -0.007354
      5          6           0       -1.294474    1.288425    0.280585
      6          7           0       -0.049456    1.760292    0.397247
      7          6           0        1.208075    1.024104    0.368531
      8          1           0        1.859245    1.549681    1.083026
      9          6           0        1.904762    1.036621   -0.991076
     10          6           0        3.303635    0.429294   -0.834344
     11          6           0        3.257525   -0.967316   -0.209066
     12          6           0        2.468459   -0.977588    1.101762
     13          6           0        1.056362   -0.426873    0.869837
     14          1           0        0.483836   -0.405786    1.811074
     15          7           0        0.408151   -1.325562   -0.078991
     16          6           0       -0.841419   -1.155169   -0.374291
     17          1           0       -2.092121    2.013570    0.410493
     18          1           0        0.020594    2.747603    0.617657
     19          1           0        1.305951    0.458796   -1.703225
     20          1           0        1.969489    2.064431   -1.369463
     21          1           0        3.802200    0.392124   -1.809670
     22          1           0        3.906935    1.094819   -0.200626
     23          1           0        2.775583   -1.663126   -0.902890
     24          1           0        4.277232   -1.331702   -0.037019
     25          1           0        2.384959   -1.999211    1.486546
     26          1           0        2.981014   -0.378757    1.867330
     27          1           0       -1.300319   -1.921751   -0.998553
 ---------------------------------------------------------------------

 Alpha  occ. eigenvalues --  -20.58785 -20.58467 -15.84433 -15.65037 -15.55768
 Alpha  occ. eigenvalues --  -11.36148 -11.29886 -11.29451 -11.28829 -11.27181
 Alpha  occ. eigenvalues --  -11.23922 -11.23308 -11.22712 -11.22118  -1.56728
 Alpha  occ. eigenvalues --   -1.36299  -1.31474  -1.22967  -1.14305  -1.09499
 Alpha  occ. eigenvalues --   -1.02982  -1.01402  -0.94247  -0.89551  -0.85636
 Alpha  occ. eigenvalues --   -0.82410  -0.78603  -0.77432  -0.75056  -0.72177
 Alpha  occ. eigenvalues --   -0.69425  -0.69166  -0.67866  -0.64887  -0.63842
 Alpha  occ. eigenvalues --   -0.62574  -0.60110  -0.57872  -0.57038  -0.55140
 Alpha  occ. eigenvalues --   -0.54656  -0.50758  -0.50018  -0.48373  -0.48063
 Alpha  occ. eigenvalues --   -0.47149  -0.46162  -0.46034  -0.43425  -0.41791
 Alpha  occ. eigenvalues --   -0.39693  -0.33227
 Alpha virt. eigenvalues --    0.07280   0.11725   0.17020   0.21774   0.24006
 Alpha virt. eigenvalues --    0.25372   0.27029   0.28597   0.28961   0.29432
 Alpha virt. eigenvalues --    0.30536   0.31758   0.31944   0.32706   0.33859

 Mulliken charges:
               1
     1  O   -0.472396
     2  N    0.494918
     3  O   -0.510011
     4  C   -0.019241
     5  C    0.199616
     6  N   -0.766029
     7  C    0.056071
     8  H    0.181934
     9  C   -0.302123
    10  C   -0.327946
    11  C   -0.321388
    12  C   -0.307051
    13  C   -0.033610
    14  H    0.189211
    15  N   -0.519607
    16  C    0.120839
    17  H    0.297418
    18  H    0.408174
    19  H    0.192419
    20  H    0.161171
    21  H    0.175243
    22  H    0.149454
    23  H    0.201033
    24  H    0.164627
    25  H    0.188116
    26  H    0.149708
    27  H    0.249449
 Sum of Mulliken charges =  -0.00000

 Dipole moment (field-independent basis, Debye):
    X=              5.6699    Y=              5.0762    Z=              1.3548  Tot=              7.7299
 Quadrupole moment (field-independent basis, Debye-Ang):
   XX=           -106.9801   YY=            -78.7205   ZZ=            -81.6467
   XY=             -1.8666   XZ=             -0.4636   YZ=              1.8861

 Normal termination of Gaussian 16 at Sat Jul  1 09:00:57 2023.
