 Gaussian 16, Revision C.02,
 Gaussian 16:  ES64L-G16RevC.02  7-Dec-2021

 ---------------------------------------------------------
 #MP2/6-31G* SCF=Tight Opt=(ModRedun, MaxCycle=20 ) NoSymm
 ---------------------------------------------------------

 --------
 MolName:
 --------
 Symbolic Z-matrix:
 Charge =  0 Multiplicity = 1

 SCF Done:  E(RHF) =  -661.281010371     A.U. after   16 cycles
 E2 =    -0.2035011489D+01 EUMP2 =    -0.66331602186002D+03
 SCF Done:  E(RHF) =  -661.295639462     A.U. after   15 cycles
 E2 =    -0.2031846623D+01 EUMP2 =    -0.66332748608483D+03
 SCF Done:  E(RHF) =  -661.293131161     A.U. after   16 cycles
 E2 =    -0.2032777178D+01 EUMP2 =    -0.66332590833948D+03
 SCF Done:  E(RHF) =  -661.291292408     A.U. after   16 cycles
 E2 =    -0.2034012821D+01 EUMP2 =    -0.66332530522826D+03
 SCF Done:  E(RHF) =  -661.288921701     A.U. after   15 cycles
 E2 =    -0.2034393692D+01 EUMP2 =    -0.66332331539310D+03
 SCF Done:  E(RHF) =  -661.296034438     A.U. after   12 cycles
 E2 =    -0.2032350019D+01 EUMP2 =    -0.66332838445771D+03
 SCF Done:  E(RHF) =  -661.296854740     A.U. after   15 cycles
 E2 =    -0.2033537832D+01 EUMP2 =    -0.66333039257289D+03
 SCF Done:  E(RHF) =  -661.297353528     A.U. after   13 cycles
 E2 =    -0.2033406125D+01 EUMP2 =    -0.66333075965305D+03
 SCF Done:  E(RHF) =  -661.297827510     A.U. after   12 cycles
 E2 =    -0.2033059980D+01 EUMP2 =    -0.66333088749073D+03
 SCF Done:  E(RHF) =  -661.297817083     A.U. after   12 cycles
 E2 =    -0.2033111498D+01 EUMP2 =    -0.66333092858153D+03
 SCF Done:  E(RHF) =  -661.297755342     A.U. after   11 cycles
 E2 =    -0.2033186166D+01 EUMP2 =    -0.66333094150787D+03
 SCF Done:  E(RHF) =  -661.297734875     A.U. after   10 cycles
 E2 =    -0.2033207918D+01 EUMP2 =    -0.66333094279297D+03
 Optimization completed.
    -- Stationary point found.

                          Input orientation:
 ---------------------------------------------------------------------
 Center     Atomic      Atomic             Coordinates (Angstroms)
 Number     Number       Type             X           Y           Z
 ---------------------------------------------------------------------
      1          8           0       -3.488385   -1.391040   -0.333167
      2          7           0       -3.115229   -0.225954   -0.096479
      3          8           0       -3.898370    0.726080    0.081683
      4          6           0       -1.675994    0.004782   -0.013509
      5          6           0       -1.308499    1.231674    0.267131
      6          7           0       -0.065007    1.740919    0.370866
      7          6           0        1.202747    1.024034    0.348373
      8          1           0        1.846332    1.556372    1.065293
      9          6           0        1.915374    1.032447   -1.002377
     10          6           0        3.312607    0.425891   -0.828144
     11          6           0        3.260980   -0.969284   -0.199427
     12          6           0        2.457825   -0.979037    1.103264
     13          6           0        1.051328   -0.421717    0.859632
     14          1           0        0.469166   -0.399231    1.794183
     15          7           0        0.407789   -1.309397   -0.105094
     16          6           0       -0.836517   -1.118734   -0.402231
     17          1           0       -2.099832    1.960475    0.426958
     18          1           0       -0.018121    2.722555    0.613700
     19          1           0        1.326799    0.455358   -1.723406
     20          1           0        1.983734    2.060282   -1.379786
     21          1           0        3.823654    0.385964   -1.796897
     22          1           0        3.908078    1.093093   -0.188767
     23          1           0        2.788445   -1.667244   -0.897641
     24          1           0        4.279064   -1.332307   -0.015189
     25          1           0        2.369284   -2.000957    1.486693
     26          1           0        2.964113   -0.381942    1.874265
     27          1           0       -1.300356   -1.860081   -1.051919
 ---------------------------------------------------------------------

 Alpha  occ. eigenvalues --  -20.59720 -20.59377 -15.85021 -15.63173 -15.56469
 Alpha  occ. eigenvalues --  -11.33716 -11.29673 -11.29334 -11.28370 -11.27081
 Alpha  occ. eigenvalues --  -11.23514 -11.23096 -11.22666 -11.22054  -1.57533
 Alpha  occ. eigenvalues --   -1.37156  -1.30517  -1.23130  -1.15286  -1.10087
 Alpha  occ. eigenvalues --   -1.02629  -1.01181  -0.94833  -0.89786  -0.85477
 Alpha  occ. eigenvalues --   -0.82508  -0.78675  -0.77412  -0.75320  -0.71723
 Alpha  occ. eigenvalues --   -0.70147  -0.69743  -0.67780  -0.64965  -0.63699
 Alpha  occ. eigenvalues --   -0.62081  -0.60377  -0.57533  -0.56936  -0.54997
 Alpha  occ. eigenvalues --   -0.54504  -0.50826  -0.50221  -0.49007  -0.48112
 Alpha  occ. eigenvalues --   -0.47606  -0.46125  -0.45994  -0.43955  -0.41592
 Alpha  occ. eigenvalues --   -0.39990  -0.34510
 Alpha virt. eigenvalues --    0.07642   0.11909   0.17590   0.21924   0.24225
 Alpha virt. eigenvalues --    0.25982   0.27258   0.28775   0.29129   0.29870
 Alpha virt. eigenvalues --    0.30831   0.31849   0.32140   0.32828   0.34054

 Mulliken charges:
               1
     1  O   -0.461805
     2  N    0.487127
     3  O   -0.497683
     4  C    0.030473
     5  C    0.169405
     6  N   -0.794892
     7  C    0.064397
     8  H    0.178016
     9  C   -0.300658
    10  C   -0.327941
    11  C   -0.321585
    12  C   -0.306241
    13  C   -0.040912
    14  H    0.190512
    15  N   -0.502126
    16  C    0.118815
    17  H    0.292919
    18  H    0.401217
    19  H    0.187807
    20  H    0.161651
    21  H    0.173986
    22  H    0.149240
    23  H    0.198784
    24  H    0.164426
    25  H    0.185924
    26  H    0.150987
    27  H    0.248157
 Sum of Mulliken charges =  -0.00000

 Dipole moment (field-independent basis, Debye):
    X=              5.1377    Y=              4.4987    Z=              1.2101  Tot=              6.9353
 Quadrupole moment (field-independent basis, Debye-Ang):
   XX=           -105.2280   YY=            -79.7523   ZZ=            -81.3307
   XY=             -1.6599   XZ=              0.2132   YZ=              1.8342

 Normal termination of Gaussian 16 at Fri Jun 30 20:27:21 2023.
