 Gaussian 16, Revision C.02,
 Gaussian 16:  ES64L-G16RevC.02  7-Dec-2021

 ---------------------------------------------------------
 #MP2/6-31G* SCF=Tight Opt=(ModRedun, MaxCycle=20 ) NoSymm
 ---------------------------------------------------------

 --------
 MolName:
 --------
 Symbolic Z-matrix:
 Charge =  0 Multiplicity = 1

 SCF Done:  E(RHF) =  -661.275323216     A.U. after   17 cycles
 E2 =    -0.2038221532D+01 EUMP2 =    -0.66331354474817D+03
 SCF Done:  E(RHF) =  -661.291855754     A.U. after   15 cycles
 E2 =    -0.2033662906D+01 EUMP2 =    -0.66332551865968D+03
 SCF Done:  E(RHF) =  -661.281707240     A.U. after   18 cycles
 E2 =    -0.2034713730D+01 EUMP2 =    -0.66331642096954D+03
 SCF Done:  E(RHF) =  -661.293106943     A.U. after   15 cycles
 E2 =    -0.2035824418D+01 EUMP2 =    -0.66332893136037D+03
 SCF Done:  E(RHF) =  -661.294853423     A.U. after   14 cycles
 E2 =    -0.2036069339D+01 EUMP2 =    -0.66333092276175D+03
 SCF Done:  E(RHF) =  -661.296151596     A.U. after   14 cycles
 E2 =    -0.2035318012D+01 EUMP2 =    -0.66333146960809D+03
 SCF Done:  E(RHF) =  -661.296357258     A.U. after   12 cycles
 E2 =    -0.2035240498D+01 EUMP2 =    -0.66333159775577D+03
 SCF Done:  E(RHF) =  -661.296274713     A.U. after   12 cycles
 E2 =    -0.2035346606D+01 EUMP2 =    -0.66333162131905D+03
 SCF Done:  E(RHF) =  -661.296226163     A.U. after   11 cycles
 E2 =    -0.2035400601D+01 EUMP2 =    -0.66333162676391D+03
 SCF Done:  E(RHF) =  -661.296222256     A.U. after    9 cycles
 E2 =    -0.2035404972D+01 EUMP2 =    -0.66333162722778D+03
 Optimization completed.
    -- Stationary point found.

                          Input orientation:
 ---------------------------------------------------------------------
 Center     Atomic      Atomic             Coordinates (Angstroms)
 Number     Number       Type             X           Y           Z
 ---------------------------------------------------------------------
      1          8           0       -3.456382   -1.435661   -0.068134
      2          7           0       -3.103818   -0.240148   -0.086492
      3          8           0       -3.898800    0.717753   -0.028768
      4          6           0       -1.674134    0.022644   -0.185416
      5          6           0       -1.296868    1.268956    0.242407
      6          7           0       -0.054448    1.766362    0.364206
      7          6           0        1.207526    1.035186    0.348449
      8          1           0        1.847484    1.554679    1.076829
      9          6           0        1.927988    1.047678   -0.997867
     10          6           0        3.318803    0.427847   -0.818986
     11          6           0        3.250382   -0.971179   -0.200758
     12          6           0        2.438339   -0.982009    1.096224
     13          6           0        1.036230   -0.416420    0.841012
     14          1           0        0.445156   -0.395480    1.769669
     15          7           0        0.398540   -1.311686   -0.119175
     16          6           0       -0.843692   -1.138435   -0.438410
     17          1           0       -2.097871    1.976881    0.438793
     18          1           0       -0.007221    2.722326    0.696221
     19          1           0        1.337766    0.478163   -1.723982
     20          1           0        2.006085    2.076582   -1.369757
     21          1           0        3.835062    0.390407   -1.785072
     22          1           0        3.916085    1.085461   -0.171467
     23          1           0        2.775221   -1.660128   -0.906318
     24          1           0        4.263795   -1.345231   -0.013015
     25          1           0        2.339926   -2.004922    1.473981
     26          1           0        2.942213   -0.390859    1.873440
     27          1           0       -1.295376   -1.918756   -1.051624
 ---------------------------------------------------------------------

 Alpha  occ. eigenvalues --  -20.59380 -20.59031 -15.84701 -15.63944 -15.56205
 Alpha  occ. eigenvalues --  -11.34964 -11.29654 -11.29606 -11.28670 -11.27174
 Alpha  occ. eigenvalues --  -11.23685 -11.23189 -11.22672 -11.22091  -1.57154
 Alpha  occ. eigenvalues --   -1.36802  -1.30818  -1.23055  -1.14696  -1.09813
 Alpha  occ. eigenvalues --   -1.02770  -1.01275  -0.94449  -0.89632  -0.85466
 Alpha  occ. eigenvalues --   -0.82494  -0.78551  -0.77479  -0.75166  -0.71893
 Alpha  occ. eigenvalues --   -0.69979  -0.69258  -0.67676  -0.64960  -0.63823
 Alpha  occ. eigenvalues --   -0.62200  -0.60430  -0.57680  -0.56906  -0.55062
 Alpha  occ. eigenvalues --   -0.54542  -0.50696  -0.50186  -0.48760  -0.48104
 Alpha  occ. eigenvalues --   -0.47463  -0.46102  -0.45979  -0.43673  -0.41837
 Alpha  occ. eigenvalues --   -0.39587  -0.33970
 Alpha virt. eigenvalues --    0.07595   0.11583   0.17269   0.21572   0.24001
 Alpha virt. eigenvalues --    0.25429   0.26842   0.28856   0.29143   0.29532
 Alpha virt. eigenvalues --    0.30470   0.31666   0.31971   0.32743   0.34039

 Mulliken charges:
               1
     1  O   -0.466387
     2  N    0.495915
     3  O   -0.495860
     4  C    0.006531
     5  C    0.175295
     6  N   -0.774064
     7  C    0.058090
     8  H    0.180343
     9  C   -0.301195
    10  C   -0.328029
    11  C   -0.322123
    12  C   -0.306207
    13  C   -0.039189
    14  H    0.188846
    15  N   -0.509856
    16  C    0.124966
    17  H    0.292968
    18  H    0.403523
    19  H    0.189374
    20  H    0.163943
    21  H    0.174662
    22  H    0.149335
    23  H    0.199562
    24  H    0.164768
    25  H    0.187668
    26  H    0.149789
    27  H    0.237332
 Sum of Mulliken charges =  -0.00000

 Dipole moment (field-independent basis, Debye):
    X=              5.3316    Y=              4.7241    Z=              1.2912  Tot=              7.2395
 Quadrupole moment (field-independent basis, Debye-Ang):
   XX=           -105.5465   YY=            -79.8233   ZZ=            -81.0354
   XY=             -1.7887   XZ=              0.6268   YZ=              3.4206

 Normal termination of Gaussian 16 at Mon Jul  3 00:43:27 2023.
