 Gaussian 16, Revision C.02,
 Gaussian 16:  ES64L-G16RevC.02  7-Dec-2021

 ---------------------------------------------------------
 #MP2/6-31G* SCF=Tight Opt=(ModRedun, MaxCycle=20 ) NoSymm
 ---------------------------------------------------------

 --------
 MolName:
 --------
 Symbolic Z-matrix:
 Charge =  0 Multiplicity = 1

 SCF Done:  E(RHF) =  -661.279787070     A.U. after   16 cycles
 E2 =    -0.2037433508D+01 EUMP2 =    -0.66331722057882D+03
 SCF Done:  E(RHF) =  -661.296763315     A.U. after   15 cycles
 E2 =    -0.2032835230D+01 EUMP2 =    -0.66332959854531D+03
 SCF Done:  E(RHF) =  -661.290326290     A.U. after   17 cycles
 E2 =    -0.2034475206D+01 EUMP2 =    -0.66332480149582D+03
 SCF Done:  E(RHF) =  -661.294965674     A.U. after   15 cycles
 E2 =    -0.2035400868D+01 EUMP2 =    -0.66333036654240D+03
 SCF Done:  E(RHF) =  -661.298103308     A.U. after   14 cycles
 E2 =    -0.2035228815D+01 EUMP2 =    -0.66333333212339D+03
 SCF Done:  E(RHF) =  -661.299186961     A.U. after   14 cycles
 E2 =    -0.2034564705D+01 EUMP2 =    -0.66333375166656D+03
 SCF Done:  E(RHF) =  -661.299494155     A.U. after   12 cycles
 E2 =    -0.2034386617D+01 EUMP2 =    -0.66333388077177D+03
 SCF Done:  E(RHF) =  -661.299401839     A.U. after   11 cycles
 E2 =    -0.2034497296D+01 EUMP2 =    -0.66333389913430D+03
 SCF Done:  E(RHF) =  -661.299339403     A.U. after   11 cycles
 E2 =    -0.2034564294D+01 EUMP2 =    -0.66333390369698D+03
 SCF Done:  E(RHF) =  -661.299330399     A.U. after    9 cycles
 E2 =    -0.2034573602D+01 EUMP2 =    -0.66333390400069D+03
 Optimization completed.
    -- Stationary point found.

                          Input orientation:
 ---------------------------------------------------------------------
 Center     Atomic      Atomic             Coordinates (Angstroms)
 Number     Number       Type             X           Y           Z
 ---------------------------------------------------------------------
      1          8           0       -3.489939   -1.421474   -0.216795
      2          7           0       -3.115544   -0.238001   -0.101427
      3          8           0       -3.897234    0.726317    0.008958
      4          6           0       -1.681693   -0.000560   -0.096973
      5          6           0       -1.299028    1.265379    0.261166
      6          7           0       -0.055115    1.758580    0.374423
      7          6           0        1.207169    1.030146    0.352921
      8          1           0        1.851406    1.554792    1.074224
      9          6           0        1.918829    1.040984   -0.998371
     10          6           0        3.313445    0.427690   -0.826904
     11          6           0        3.255344   -0.969506   -0.203558
     12          6           0        2.452229   -0.979362    1.098961
     13          6           0        1.046273   -0.419730    0.853143
     14          1           0        0.462656   -0.397794    1.786846
     15          7           0        0.403868   -1.314104   -0.104413
     16          6           0       -0.841037   -1.138206   -0.411934
     17          1           0       -2.096071    1.983790    0.433218
     18          1           0       -0.001928    2.729323    0.659358
     19          1           0        1.326252    0.467102   -1.718944
     20          1           0        1.990786    2.069161   -1.373875
     21          1           0        3.823272    0.389265   -1.796358
     22          1           0        3.912285    1.090008   -0.185626
     23          1           0        2.778642   -1.662785   -0.903676
     24          1           0        4.271705   -1.338220   -0.021200
     25          1           0        2.360339   -2.001528    1.480516
     26          1           0        2.959414   -0.384375    1.871059
     27          1           0       -1.296313   -1.905903   -1.037730
 ---------------------------------------------------------------------

 Alpha  occ. eigenvalues --  -20.59296 -20.58963 -15.84722 -15.64022 -15.56170
 Alpha  occ. eigenvalues --  -11.34966 -11.29612 -11.29609 -11.28655 -11.27154
 Alpha  occ. eigenvalues --  -11.23698 -11.23194 -11.22683 -11.22089  -1.57140
 Alpha  occ. eigenvalues --   -1.36754  -1.30883  -1.23066  -1.14701  -1.09825
 Alpha  occ. eigenvalues --   -1.02788  -1.01298  -0.94495  -0.89694  -0.85513
 Alpha  occ. eigenvalues --   -0.82476  -0.78578  -0.77446  -0.75187  -0.71969
 Alpha  occ. eigenvalues --   -0.69894  -0.69348  -0.67759  -0.64935  -0.63804
 Alpha  occ. eigenvalues --   -0.62275  -0.60355  -0.57689  -0.56956  -0.55070
 Alpha  occ. eigenvalues --   -0.54558  -0.50727  -0.50140  -0.48699  -0.48117
 Alpha  occ. eigenvalues --   -0.47419  -0.46074  -0.46067  -0.43678  -0.41758
 Alpha  occ. eigenvalues --   -0.39739  -0.33880
 Alpha virt. eigenvalues --    0.07466   0.11716   0.17291   0.21758   0.24113
 Alpha virt. eigenvalues --    0.25735   0.26981   0.28861   0.29093   0.29630
 Alpha virt. eigenvalues --    0.30568   0.31744   0.31995   0.32754   0.34019

 Mulliken charges:
               1
     1  O   -0.466988
     2  N    0.493245
     3  O   -0.501973
     4  C    0.001661
     5  C    0.182856
     6  N   -0.778729
     7  C    0.059976
     8  H    0.180051
     9  C   -0.301179
    10  C   -0.328000
    11  C   -0.321804
    12  C   -0.306458
    13  C   -0.037985
    14  H    0.189189
    15  N   -0.510397
    16  C    0.126648
    17  H    0.294867
    18  H    0.404150
    19  H    0.189670
    20  H    0.162738
    21  H    0.174637
    22  H    0.149322
    23  H    0.199747
    24  H    0.164643
    25  H    0.187314
    26  H    0.150074
    27  H    0.242727
 Sum of Mulliken charges =  -0.00000

 Dipole moment (field-independent basis, Debye):
    X=              5.3797    Y=              4.7640    Z=              1.3005  Tot=              7.3026
 Quadrupole moment (field-independent basis, Debye-Ang):
   XX=           -105.9172   YY=            -79.5811   ZZ=            -81.1821
   XY=             -1.8262   XZ=              0.2200   YZ=              2.6702

 Normal termination of Gaussian 16 at Mon Jul  3 00:19:42 2023.
