 Gaussian 16, Revision C.02,
 Gaussian 16:  ES64L-G16RevC.02  7-Dec-2021

 ---------------------------------------------------------
 #MP2/6-31G* SCF=Tight Opt=(ModRedun, MaxCycle=20 ) NoSymm
 ---------------------------------------------------------

 --------
 MolName:
 --------
 Symbolic Z-matrix:
 Charge =  0 Multiplicity = 1

 SCF Done:  E(RHF) =  -661.281659773     A.U. after   16 cycles
 E2 =    -0.2037305887D+01 EUMP2 =    -0.66331896566062D+03
 SCF Done:  E(RHF) =  -661.298768195     A.U. after   15 cycles
 E2 =    -0.2032684728D+01 EUMP2 =    -0.66333145292373D+03
 SCF Done:  E(RHF) =  -661.299603510     A.U. after   15 cycles
 E2 =    -0.2033373209D+01 EUMP2 =    -0.66333297671933D+03
 SCF Done:  E(RHF) =  -661.288764504     A.U. after   17 cycles
 E2 =    -0.2035824499D+01 EUMP2 =    -0.66332458900271D+03
 SCF Done:  E(RHF) =  -661.299689281     A.U. after   14 cycles
 E2 =    -0.2034644596D+01 EUMP2 =    -0.66333433387722D+03
 SCF Done:  E(RHF) =  -661.299835011     A.U. after   13 cycles
 E2 =    -0.2034713813D+01 EUMP2 =    -0.66333454882431D+03
 SCF Done:  E(RHF) =  -661.300400135     A.U. after   12 cycles
 E2 =    -0.2034236420D+01 EUMP2 =    -0.66333463655460D+03
 SCF Done:  E(RHF) =  -661.300385944     A.U. after   12 cycles
 E2 =    -0.2034262255D+01 EUMP2 =    -0.66333464819843D+03
 SCF Done:  E(RHF) =  -661.300369070     A.U. after   10 cycles
 E2 =    -0.2034280153D+01 EUMP2 =    -0.66333464922235D+03
 SCF Done:  E(RHF) =  -661.300358382     A.U. after    9 cycles
 E2 =    -0.2034291019D+01 EUMP2 =    -0.66333464940085D+03
 Optimization completed.
    -- Stationary point found.

                          Input orientation:
 ---------------------------------------------------------------------
 Center     Atomic      Atomic             Coordinates (Angstroms)
 Number     Number       Type             X           Y           Z
 ---------------------------------------------------------------------
      1          8           0       -3.506743   -1.391146   -0.368037
      2          7           0       -3.121056   -0.232779   -0.116563
      3          8           0       -3.895371    0.728290    0.057191
      4          6           0       -1.686569   -0.024101   -0.008478
      5          6           0       -1.301402    1.260627    0.275346
      6          7           0       -0.057179    1.750416    0.385411
      7          6           0        1.205713    1.024358    0.358418
      8          1           0        1.853759    1.553941    1.073088
      9          6           0        1.908515    1.034357   -0.997775
     10          6           0        3.307020    0.427946   -0.833931
     11          6           0        3.259444   -0.967628   -0.206152
     12          6           0        2.465118   -0.977164    1.101725
     13          6           0        1.055243   -0.423839    0.865485
     14          1           0        0.479127   -0.401793    1.804148
     15          7           0        0.408391   -1.318079   -0.089677
     16          6           0       -0.839112   -1.138680   -0.384631
     17          1           0       -2.096188    1.987562    0.418678
     18          1           0        0.001672    2.735758    0.613809
     19          1           0        1.313951    0.456254   -1.713173
     20          1           0        1.974226    2.061970   -1.376415
     21          1           0        3.810468    0.389064   -1.806693
     22          1           0        3.907095    1.094825   -0.198542
     23          1           0        2.781449   -1.665027   -0.901171
     24          1           0        4.278723   -1.330927   -0.029226
     25          1           0        2.379953   -1.998754    1.486520
     26          1           0        2.975383   -0.378576    1.868978
     27          1           0       -1.300630   -1.893857   -1.020322
 ---------------------------------------------------------------------

 Alpha  occ. eigenvalues --  -20.59237 -20.58904 -15.84722 -15.64136 -15.56112
 Alpha  occ. eigenvalues --  -11.35017 -11.29623 -11.29559 -11.28627 -11.27134
 Alpha  occ. eigenvalues --  -11.23728 -11.23208 -11.22691 -11.22089  -1.57115
 Alpha  occ. eigenvalues --   -1.36709  -1.30977  -1.23065  -1.14703  -1.09819
 Alpha  occ. eigenvalues --   -1.02805  -1.01308  -0.94481  -0.89685  -0.85566
 Alpha  occ. eigenvalues --   -0.82448  -0.78609  -0.77411  -0.75203  -0.72019
 Alpha  occ. eigenvalues --   -0.69771  -0.69438  -0.67820  -0.64893  -0.63778
 Alpha  occ. eigenvalues --   -0.62367  -0.60282  -0.57700  -0.57001  -0.55077
 Alpha  occ. eigenvalues --   -0.54582  -0.50762  -0.50109  -0.48656  -0.48102
 Alpha  occ. eigenvalues --   -0.47372  -0.46146  -0.46044  -0.43678  -0.41695
 Alpha  occ. eigenvalues --   -0.39848  -0.33830
 Alpha virt. eigenvalues --    0.07465   0.11799   0.17308   0.21848   0.24112
 Alpha virt. eigenvalues --    0.25664   0.27134   0.28695   0.29044   0.29636
 Alpha virt. eigenvalues --    0.30682   0.31798   0.32036   0.32767   0.33951

 Mulliken charges:
               1
     1  O   -0.467236
     2  N    0.491310
     3  O   -0.504058
     4  C    0.000448
     5  C    0.188862
     6  N   -0.780287
     7  C    0.060260
     8  H    0.180084
     9  C   -0.301430
    10  C   -0.327939
    11  C   -0.321491
    12  C   -0.306657
    13  C   -0.037193
    14  H    0.189954
    15  N   -0.511213
    16  C    0.120056
    17  H    0.295310
    18  H    0.404869
    19  H    0.190186
    20  H    0.161383
    21  H    0.174646
    22  H    0.149361
    23  H    0.199942
    24  H    0.164540
    25  H    0.187061
    26  H    0.150347
    27  H    0.248889
 Sum of Mulliken charges =  -0.00000

 Dipole moment (field-independent basis, Debye):
    X=              5.4157    Y=              4.7975    Z=              1.2750  Tot=              7.3465
 Quadrupole moment (field-independent basis, Debye-Ang):
   XX=           -106.1393   YY=            -79.2239   ZZ=            -81.5024
   XY=             -1.7685   XZ=             -0.1185   YZ=              1.8578

 Normal termination of Gaussian 16 at Sun Jul  2 23:20:45 2023.
