 Gaussian 16, Revision C.02,
 Gaussian 16:  ES64L-G16RevC.02  7-Dec-2021

 ---------------------------------------------------------
 #MP2/6-31G* SCF=Tight Opt=(ModRedun, MaxCycle=20 ) NoSymm
 ---------------------------------------------------------

 --------
 MolName:
 --------
 Symbolic Z-matrix:
 Charge =  0 Multiplicity = 1

 SCF Done:  E(RHF) =  -661.280647364     A.U. after   16 cycles
 E2 =    -0.2037913457D+01 EUMP2 =    -0.66331856082065D+03
 SCF Done:  E(RHF) =  -661.297348564     A.U. after   15 cycles
 E2 =    -0.2033307385D+01 EUMP2 =    -0.66333065594875D+03
 SCF Done:  E(RHF) =  -661.287301455     A.U. after   17 cycles
 E2 =    -0.2034324994D+01 EUMP2 =    -0.66332162644860D+03
 SCF Done:  E(RHF) =  -661.295670033     A.U. after   14 cycles
 E2 =    -0.2035521181D+01 EUMP2 =    -0.66333119121463D+03
 SCF Done:  E(RHF) =  -661.298321690     A.U. after   13 cycles
 E2 =    -0.2035195890D+01 EUMP2 =    -0.66333351757948D+03
 SCF Done:  E(RHF) =  -661.298952219     A.U. after   12 cycles
 E2 =    -0.2034780445D+01 EUMP2 =    -0.66333373266430D+03
 SCF Done:  E(RHF) =  -661.299193247     A.U. after   12 cycles
 E2 =    -0.2034593358D+01 EUMP2 =    -0.66333378660491D+03
 SCF Done:  E(RHF) =  -661.299155173     A.U. after   11 cycles
 E2 =    -0.2034638468D+01 EUMP2 =    -0.66333379364062D+03
 SCF Done:  E(RHF) =  -661.299128979     A.U. after   10 cycles
 E2 =    -0.2034665994D+01 EUMP2 =    -0.66333379497290D+03
 Optimization completed.
    -- Stationary point found.

                          Input orientation:
 ---------------------------------------------------------------------
 Center     Atomic      Atomic             Coordinates (Angstroms)
 Number     Number       Type             X           Y           Z
 ---------------------------------------------------------------------
      1          8           0       -3.506060   -1.341632   -0.525368
      2          7           0       -3.119404   -0.222596   -0.136694
      3          8           0       -3.891796    0.727880    0.095051
      4          6           0       -1.688523   -0.048646    0.081806
      5          6           0       -1.304020    1.252976    0.289474
      6          7           0       -0.060704    1.742225    0.397148
      7          6           0        1.203158    1.017910    0.364915
      8          1           0        1.855141    1.552778    1.072348
      9          6           0        1.895971    1.026615   -0.996631
     10          6           0        3.298572    0.427610   -0.840966
     11          6           0        3.262374   -0.965945   -0.208031
     12          6           0        2.477668   -0.974651    1.105676
     13          6           0        1.063616   -0.428437    0.879363
     14          1           0        0.495236   -0.406216    1.823011
     15          7           0        0.412226   -1.324431   -0.072112
     16          6           0       -0.838076   -1.141614   -0.353227
     17          1           0       -2.098653    1.985667    0.399507
     18          1           0        0.002775    2.739420    0.566203
     19          1           0        1.299170    0.443757   -1.706135
     20          1           0        1.954985    2.053457   -1.378906
     21          1           0        3.795054    0.387856   -1.817265
     22          1           0        3.899953    1.099615   -0.212240
     23          1           0        2.782938   -1.668036   -0.897202
     24          1           0        4.284746   -1.323373   -0.037049
     25          1           0        2.399884   -1.995424    1.494290
     26          1           0        2.991146   -0.371750    1.867365
     27          1           0       -1.307378   -1.884014   -0.997340
 ---------------------------------------------------------------------

 Alpha  occ. eigenvalues --  -20.59221 -20.58871 -15.84701 -15.64273 -15.56042
 Alpha  occ. eigenvalues --  -11.35115 -11.29646 -11.29499 -11.28597 -11.27117
 Alpha  occ. eigenvalues --  -11.23768 -11.23225 -11.22699 -11.22091  -1.57095
 Alpha  occ. eigenvalues --   -1.36684  -1.31087  -1.23057  -1.14704  -1.09796
 Alpha  occ. eigenvalues --   -1.02818  -1.01298  -0.94402  -0.89604  -0.85617
 Alpha  occ. eigenvalues --   -0.82413  -0.78642  -0.77381  -0.75208  -0.72038
 Alpha  occ. eigenvalues --   -0.69625  -0.69526  -0.67852  -0.64832  -0.63747
 Alpha  occ. eigenvalues --   -0.62473  -0.60212  -0.57701  -0.57044  -0.55090
 Alpha  occ. eigenvalues --   -0.54611  -0.50801  -0.50098  -0.48634  -0.48069
 Alpha  occ. eigenvalues --   -0.47332  -0.46216  -0.46014  -0.43674  -0.41661
 Alpha  occ. eigenvalues --   -0.39911  -0.33828
 Alpha virt. eigenvalues --    0.07601   0.11807   0.17320   0.21880   0.23979
 Alpha virt. eigenvalues --    0.25258   0.27147   0.28342   0.29038   0.29571
 Alpha virt. eigenvalues --    0.30760   0.31863   0.32087   0.32764   0.33854

 Mulliken charges:
               1
     1  O   -0.467771
     2  N    0.491785
     3  O   -0.501071
     4  C    0.003936
     5  C    0.190202
     6  N   -0.777232
     7  C    0.058880
     8  H    0.180429
     9  C   -0.301854
    10  C   -0.327871
    11  C   -0.321195
    12  C   -0.306679
    13  C   -0.037940
    14  H    0.190915
    15  N   -0.510896
    16  C    0.104513
    17  H    0.294424
    18  H    0.405473
    19  H    0.190846
    20  H    0.160077
    21  H    0.174695
    22  H    0.149435
    23  H    0.200184
    24  H    0.164446
    25  H    0.186897
    26  H    0.150595
    27  H    0.254775
 Sum of Mulliken charges =  -0.00000

 Dipole moment (field-independent basis, Debye):
    X=              5.4315    Y=              4.8034    Z=              1.2524  Tot=              7.3582
 Quadrupole moment (field-independent basis, Debye-Ang):
   XX=           -106.1660   YY=            -78.8005   ZZ=            -81.9805
   XY=             -1.5691   XZ=             -0.5088   YZ=              1.0821

 Normal termination of Gaussian 16 at Sun Jul  2 23:40:52 2023.
