 Gaussian 16, Revision C.02,
 Gaussian 16:  ES64L-G16RevC.02  7-Dec-2021

 ---------------------------------------------------------
 #MP2/6-31G* SCF=Tight Opt=(ModRedun, MaxCycle=20 ) NoSymm
 ---------------------------------------------------------

 --------
 MolName:
 --------
 Symbolic Z-matrix:
 Charge =  0 Multiplicity = 1

 SCF Done:  E(RHF) =  -661.275867005     A.U. after   16 cycles
 E2 =    -0.2039114901D+01 EUMP2 =    -0.66331498190609D+03
 SCF Done:  E(RHF) =  -661.292296722     A.U. after   16 cycles
 E2 =    -0.2034640673D+01 EUMP2 =    -0.66332693739501D+03
 SCF Done:  E(RHF) =  -661.279026367     A.U. after   17 cycles
 E2 =    -0.2034470318D+01 EUMP2 =    -0.66331349668463D+03
 SCF Done:  E(RHF) =  -661.292314173     A.U. after   15 cycles
 E2 =    -0.2036386787D+01 EUMP2 =    -0.66332870095973D+03
 SCF Done:  E(RHF) =  -661.294304291     A.U. after   13 cycles
 E2 =    -0.2036254403D+01 EUMP2 =    -0.66333055869351D+03
 SCF Done:  E(RHF) =  -661.295031172     A.U. after   12 cycles
 E2 =    -0.2035731895D+01 EUMP2 =    -0.66333076306654D+03
 SCF Done:  E(RHF) =  -661.295439018     A.U. after   12 cycles
 E2 =    -0.2035370093D+01 EUMP2 =    -0.66333080911042D+03
 SCF Done:  E(RHF) =  -661.295317604     A.U. after   11 cycles
 E2 =    -0.2035506211D+01 EUMP2 =    -0.66333082381550D+03
 SCF Done:  E(RHF) =  -661.295248956     A.U. after   10 cycles
 E2 =    -0.2035577026D+01 EUMP2 =    -0.66333082598184D+03
 Optimization completed.
    -- Stationary point found.

                          Input orientation:
 ---------------------------------------------------------------------
 Center     Atomic      Atomic             Coordinates (Angstroms)
 Number     Number       Type             X           Y           Z
 ---------------------------------------------------------------------
      1          8           0       -3.482910   -1.275933   -0.680711
      2          7           0       -3.108633   -0.208340   -0.159773
      3          8           0       -3.885500    0.726578    0.116602
      4          6           0       -1.685358   -0.073525    0.175602
      5          6           0       -1.307317    1.242998    0.308117
      6          7           0       -0.065831    1.734848    0.409940
      7          6           0        1.199006    1.010999    0.372151
      8          1           0        1.855462    1.550456    1.072230
      9          6           0        1.880352    1.018801   -0.995326
     10          6           0        3.287469    0.428027   -0.849344
     11          6           0        3.263995   -0.963452   -0.211343
     12          6           0        2.490206   -0.971601    1.108863
     13          6           0        1.071342   -0.433873    0.893428
     14          1           0        0.511410   -0.412006    1.842426
     15          7           0        0.415319   -1.333892   -0.052890
     16          6           0       -0.838215   -1.147677   -0.317745
     17          1           0       -2.103792    1.977759    0.383518
     18          1           0        0.001273    2.740037    0.522654
     19          1           0        1.280855    0.430805   -1.698186
     20          1           0        1.931629    2.044839   -1.381324
     21          1           0        3.775979    0.387592   -1.829641
     22          1           0        3.890326    1.105484   -0.227916
     23          1           0        2.782808   -1.670481   -0.894152
     24          1           0        4.289711   -1.314551   -0.047349
     25          1           0        2.420845   -1.991522    1.501394
     26          1           0        3.007120   -0.363918    1.864403
     27          1           0       -1.317592   -1.876442   -0.968646
 ---------------------------------------------------------------------

 Alpha  occ. eigenvalues --  -20.59247 -20.58858 -15.84645 -15.64421 -15.55963
 Alpha  occ. eigenvalues --  -11.35256 -11.29680 -11.29428 -11.28579 -11.27108
 Alpha  occ. eigenvalues --  -11.23813 -11.23244 -11.22708 -11.22093  -1.57064
 Alpha  occ. eigenvalues --   -1.36674  -1.31208  -1.23042  -1.14689  -1.09736
 Alpha  occ. eigenvalues --   -1.02823  -1.01258  -0.94254  -0.89429  -0.85662
 Alpha  occ. eigenvalues --   -0.82377  -0.78674  -0.77357  -0.75213  -0.71999
 Alpha  occ. eigenvalues --   -0.69593  -0.69452  -0.67852  -0.64752  -0.63709
 Alpha  occ. eigenvalues --   -0.62596  -0.60172  -0.57687  -0.57088  -0.55113
 Alpha  occ. eigenvalues --   -0.54642  -0.50845  -0.50107  -0.48608  -0.48027
 Alpha  occ. eigenvalues --   -0.47292  -0.46272  -0.45972  -0.43665  -0.41661
 Alpha  occ. eigenvalues --   -0.39925  -0.33879
 Alpha virt. eigenvalues --    0.07893   0.11729   0.17320   0.21828   0.23440
 Alpha virt. eigenvalues --    0.24752   0.26996   0.28036   0.29020   0.29502
 Alpha virt. eigenvalues --    0.30776   0.31935   0.32135   0.32740   0.33771

 Mulliken charges:
               1
     1  O   -0.467995
     2  N    0.494326
     3  O   -0.496729
     4  C    0.004274
     5  C    0.189898
     6  N   -0.771630
     7  C    0.057114
     8  H    0.180990
     9  C   -0.302413
    10  C   -0.327767
    11  C   -0.320944
    12  C   -0.306598
    13  C   -0.040313
    14  H    0.191966
    15  N   -0.509426
    16  C    0.088122
    17  H    0.293809
    18  H    0.405820
    19  H    0.191553
    20  H    0.158939
    21  H    0.174774
    22  H    0.149530
    23  H    0.200478
    24  H    0.164362
    25  H    0.186838
    26  H    0.150817
    27  H    0.260204
 Sum of Mulliken charges =  -0.00000

 Dipole moment (field-independent basis, Debye):
    X=              5.4204    Y=              4.7829    Z=              1.2465  Tot=              7.3356
 Quadrupole moment (field-independent basis, Debye-Ang):
   XX=           -105.9665   YY=            -78.3571   ZZ=            -82.5782
   XY=             -1.2384   XZ=             -0.9394   YZ=              0.4404

 Normal termination of Gaussian 16 at Sun Jul  2 23:59:18 2023.
