 Gaussian 16, Revision C.02,
 Gaussian 16:  ES64L-G16RevC.02  7-Dec-2021

 ---------------------------------------------------------
 #MP2/6-31G* SCF=Tight Opt=(ModRedun, MaxCycle=20 ) NoSymm
 ---------------------------------------------------------

 --------
 MolName:
 --------
 Symbolic Z-matrix:
 Charge =  0 Multiplicity = 1

 SCF Done:  E(RHF) =  -661.258875105     A.U. after   17 cycles
 E2 =    -0.2040839372D+01 EUMP2 =    -0.66329971447638D+03
 SCF Done:  E(RHF) =  -661.279309237     A.U. after   17 cycles
 E2 =    -0.2036997443D+01 EUMP2 =    -0.66331630667975D+03
 SCF Done:  E(RHF) =  -661.272266415     A.U. after   17 cycles
 E2 =    -0.2037991079D+01 EUMP2 =    -0.66331025749462D+03
 SCF Done:  E(RHF) =  -661.284189951     A.U. after   16 cycles
 E2 =    -0.2038229726D+01 EUMP2 =    -0.66332241967673D+03
 SCF Done:  E(RHF) =  -661.286976926     A.U. after   14 cycles
 E2 =    -0.2038132416D+01 EUMP2 =    -0.66332510934188D+03
 SCF Done:  E(RHF) =  -661.288874950     A.U. after   14 cycles
 E2 =    -0.2036883045D+01 EUMP2 =    -0.66332575799515D+03
 SCF Done:  E(RHF) =  -661.289356414     A.U. after   13 cycles
 E2 =    -0.2036547216D+01 EUMP2 =    -0.66332590362993D+03
 SCF Done:  E(RHF) =  -661.289260619     A.U. after   12 cycles
 E2 =    -0.2036682837D+01 EUMP2 =    -0.66332594345600D+03
 SCF Done:  E(RHF) =  -661.289046546     A.U. after   12 cycles
 E2 =    -0.2036911077D+01 EUMP2 =    -0.66332595762323D+03
 SCF Done:  E(RHF) =  -661.289032304     A.U. after   10 cycles
 E2 =    -0.2036928039D+01 EUMP2 =    -0.66332596034382D+03
 SCF Done:  E(RHF) =  -661.289020349     A.U. after    9 cycles
 E2 =    -0.2036940585D+01 EUMP2 =    -0.66332596093444D+03
 Optimization completed.
    -- Stationary point found.

                          Input orientation:
 ---------------------------------------------------------------------
 Center     Atomic      Atomic             Coordinates (Angstroms)
 Number     Number       Type             X           Y           Z
 ---------------------------------------------------------------------
      1          8           0       -3.378359   -1.441240    0.132645
      2          7           0       -3.077044   -0.245812   -0.050179
      3          8           0       -3.901034    0.688506   -0.035986
      4          6           0       -1.659928    0.051666   -0.295077
      5          6           0       -1.295880    1.273438    0.213768
      6          7           0       -0.056398    1.777186    0.347990
      7          6           0        1.205196    1.041154    0.340533
      8          1           0        1.838802    1.553573    1.078951
      9          6           0        1.937879    1.057260   -0.998776
     10          6           0        3.324215    0.430330   -0.810050
     11          6           0        3.243225   -0.971411   -0.199523
     12          6           0        2.418838   -0.984840    1.089656
     13          6           0        1.021348   -0.412726    0.822443
     14          1           0        0.420733   -0.394548    1.744559
     15          7           0        0.390241   -1.311015   -0.141243
     16          6           0       -0.848531   -1.139553   -0.473205
     17          1           0       -2.103860    1.964590    0.439537
     18          1           0       -0.016087    2.715640    0.727628
     19          1           0        1.351991    0.493333   -1.732974
     20          1           0        2.023218    2.087391   -1.365282
     21          1           0        3.849393    0.395246   -1.771420
     22          1           0        3.918375    1.081949   -0.153670
     23          1           0        2.771059   -1.654592   -0.912905
     24          1           0        4.252870   -1.351834   -0.004476
     25          1           0        2.312535   -2.009022    1.461619
     26          1           0        2.917629   -0.398947    1.874165
     27          1           0       -1.299424   -1.932731   -1.070717
 ---------------------------------------------------------------------

 Alpha  occ. eigenvalues --  -20.59476 -20.59100 -15.84613 -15.63898 -15.56220
 Alpha  occ. eigenvalues --  -11.35037 -11.29689 -11.29627 -11.28678 -11.27204
 Alpha  occ. eigenvalues --  -11.23692 -11.23193 -11.22659 -11.22099  -1.57131
 Alpha  occ. eigenvalues --   -1.36845  -1.30774  -1.23030  -1.14668  -1.09754
 Alpha  occ. eigenvalues --   -1.02749  -1.01219  -0.94315  -0.89417  -0.85414
 Alpha  occ. eigenvalues --   -0.82502  -0.78514  -0.77503  -0.75150  -0.71718
 Alpha  occ. eigenvalues --   -0.70022  -0.69140  -0.67534  -0.64980  -0.63825
 Alpha  occ. eigenvalues --   -0.62141  -0.60555  -0.57667  -0.56849  -0.55053
 Alpha  occ. eigenvalues --   -0.54527  -0.50663  -0.50247  -0.48850  -0.48011
 Alpha  occ. eigenvalues --   -0.47498  -0.46130  -0.45845  -0.43653  -0.41926
 Alpha  occ. eigenvalues --   -0.39356  -0.34164
 Alpha virt. eigenvalues --    0.07939   0.11385   0.17215   0.21011   0.23551
 Alpha virt. eigenvalues --    0.24864   0.26778   0.28778   0.29097   0.29423
 Alpha virt. eigenvalues --    0.30349   0.31491   0.31948   0.32736   0.34024

 Mulliken charges:
               1
     1  O   -0.463886
     2  N    0.498123
     3  O   -0.488401
     4  C    0.007953
     5  C    0.170447
     6  N   -0.767463
     7  C    0.054854
     8  H    0.181020
     9  C   -0.301545
    10  C   -0.328022
    11  C   -0.322515
    12  C   -0.306042
    13  C   -0.040156
    14  H    0.188981
    15  N   -0.509728
    16  C    0.119812
    17  H    0.290439
    18  H    0.402835
    19  H    0.189289
    20  H    0.165255
    21  H    0.174733
    22  H    0.149409
    23  H    0.199291
    24  H    0.164985
    25  H    0.188334
    26  H    0.149439
    27  H    0.232561
 Sum of Mulliken charges =  -0.00000

 Dipole moment (field-independent basis, Debye):
    X=              5.2550    Y=              4.6935    Z=              1.2106  Tot=              7.1491
 Quadrupole moment (field-independent basis, Debye-Ang):
   XX=           -104.8597   YY=            -79.9671   ZZ=            -81.0847
   XY=             -1.6896   XZ=              1.3414   YZ=              4.2726

 Normal termination of Gaussian 16 at Sat Jul  1 05:29:29 2023.
