 Gaussian 16, Revision C.02,
 Gaussian 16:  ES64L-G16RevC.02  7-Dec-2021

 ---------------------------------------------------------
 #MP2/6-31G* SCF=Tight Opt=(ModRedun, MaxCycle=20 ) NoSymm
 ---------------------------------------------------------

 --------
 MolName:
 --------
 Symbolic Z-matrix:
 Charge =  0 Multiplicity = 1

 SCF Done:  E(RHF) =  -661.281703433     A.U. after   17 cycles
 E2 =    -0.2033299037D+01 EUMP2 =    -0.66331500247039D+03
 SCF Done:  E(RHF) =  -661.295396682     A.U. after   15 cycles
 E2 =    -0.2031620526D+01 EUMP2 =    -0.66332701720844D+03
 SCF Done:  E(RHF) =  -661.297437283     A.U. after   15 cycles
 E2 =    -0.2032048602D+01 EUMP2 =    -0.66332948588469D+03
 SCF Done:  E(RHF) =  -661.297777294     A.U. after   15 cycles
 E2 =    -0.2032766413D+01 EUMP2 =    -0.66333054370701D+03
 SCF Done:  E(RHF) =  -661.298441335     A.U. after   14 cycles
 E2 =    -0.2032789370D+01 EUMP2 =    -0.66333123070460D+03
 SCF Done:  E(RHF) =  -661.298985895     A.U. after   12 cycles
 E2 =    -0.2032343452D+01 EUMP2 =    -0.66333132934706D+03
 SCF Done:  E(RHF) =  -661.299240585     A.U. after   11 cycles
 E2 =    -0.2032110808D+01 EUMP2 =    -0.66333135139352D+03
 SCF Done:  E(RHF) =  -661.299169188     A.U. after   11 cycles
 E2 =    -0.2032188930D+01 EUMP2 =    -0.66333135811813D+03
 SCF Done:  E(RHF) =  -661.299081039     A.U. after   10 cycles
 E2 =    -0.2032278365D+01 EUMP2 =    -0.66333135940389D+03
 Optimization completed.
    -- Stationary point found.

                          Input orientation:
 ---------------------------------------------------------------------
 Center     Atomic      Atomic             Coordinates (Angstroms)
 Number     Number       Type             X           Y           Z
 ---------------------------------------------------------------------
      1          8           0       -3.458808   -1.399104   -0.335771
      2          7           0       -3.070601   -0.234524   -0.093287
      3          8           0       -3.866832    0.713313    0.089010
      4          6           0       -1.710140   -0.020955   -0.016572
      5          6           0       -1.308879    1.263054    0.268663
      6          7           0       -0.063925    1.746519    0.374421
      7          6           0        1.200532    1.022124    0.352861
      8          1           0        1.843772    1.554196    1.070130
      9          6           0        1.910302    1.032660   -0.999386
     10          6           0        3.307425    0.425395   -0.826584
     11          6           0        3.255230   -0.970314   -0.199190
     12          6           0        2.452630   -0.980360    1.103814
     13          6           0        1.045787   -0.422635    0.861898
     14          1           0        0.465912   -0.399690    1.798244
     15          7           0        0.400889   -1.308532   -0.101637
     16          6           0       -0.842231   -1.124835   -0.405586
     17          1           0       -2.097366    1.995162    0.418449
     18          1           0       -0.003066    2.735298    0.588581
     19          1           0        1.320049    0.455627   -1.718947
     20          1           0        1.979431    2.060582   -1.376694
     21          1           0        3.816685    0.386273   -1.796246
     22          1           0        3.903906    1.091993   -0.187575
     23          1           0        2.781631   -1.667247   -0.897645
     24          1           0        4.273182   -1.333929   -0.015720
     25          1           0        2.362507   -2.002514    1.486021
     26          1           0        2.959851   -0.384842    1.875487
     27          1           0       -1.293863   -1.869725   -1.059747
 ---------------------------------------------------------------------

 Alpha  occ. eigenvalues --  -20.58329 -20.57929 -15.84005 -15.64693 -15.56226
 Alpha  occ. eigenvalues --  -11.35432 -11.29868 -11.29554 -11.28160 -11.27290
 Alpha  occ. eigenvalues --  -11.23935 -11.23360 -11.22830 -11.22219  -1.56796
 Alpha  occ. eigenvalues --   -1.35775  -1.31423  -1.23253  -1.15686  -1.10793
 Alpha  occ. eigenvalues --   -1.03094  -1.01760  -0.94959  -0.89865  -0.85785
 Alpha  occ. eigenvalues --   -0.82582  -0.78717  -0.77375  -0.75423  -0.72161
 Alpha  occ. eigenvalues --   -0.69879  -0.69174  -0.67779  -0.64964  -0.63860
 Alpha  occ. eigenvalues --   -0.62529  -0.60236  -0.57909  -0.57160  -0.55173
 Alpha  occ. eigenvalues --   -0.54726  -0.50914  -0.50136  -0.48659  -0.48179
 Alpha  occ. eigenvalues --   -0.46968  -0.46273  -0.45751  -0.43213  -0.41787
 Alpha  occ. eigenvalues --   -0.39961  -0.34039
 Alpha virt. eigenvalues --    0.06918   0.12007   0.17150   0.21766   0.24073
 Alpha virt. eigenvalues --    0.25767   0.27118   0.28710   0.28924   0.29646
 Alpha virt. eigenvalues --    0.30739   0.31701   0.31909   0.32654   0.33848

 Mulliken charges:
               1
     1  O   -0.480860
     2  N    0.479880
     3  O   -0.520211
     4  C    0.014979
     5  C    0.194777
     6  N   -0.776416
     7  C    0.059346
     8  H    0.181548
     9  C   -0.302193
    10  C   -0.328308
    11  C   -0.321691
    12  C   -0.306976
    13  C   -0.036699
    14  H    0.190339
    15  N   -0.509007
    16  C    0.123880
    17  H    0.298898
    18  H    0.406871
    19  H    0.191451
    20  H    0.161735
    21  H    0.175488
    22  H    0.149799
    23  H    0.200333
    24  H    0.165237
    25  H    0.187879
    26  H    0.150740
    27  H    0.249183
 Sum of Mulliken charges =  -0.00000

 Dipole moment (field-independent basis, Debye):
    X=              5.8249    Y=              4.9844    Z=              1.2268  Tot=              7.7640
 Quadrupole moment (field-independent basis, Debye-Ang):
   XX=           -107.3227   YY=            -79.0116   ZZ=            -81.3034
   XY=             -2.1449   XZ=              0.1087   YZ=              1.7690

 Normal termination of Gaussian 16 at Sat Jul  1 07:52:54 2023.
