 Gaussian 16, Revision C.02,
 Gaussian 16:  ES64L-G16RevC.02  7-Dec-2021

 ---------------------------------------------------------
 #MP2/6-31G* SCF=Tight Opt=(ModRedun, MaxCycle=20 ) NoSymm
 ---------------------------------------------------------

 --------
 MolName:
 --------
 Symbolic Z-matrix:
 Charge =  0 Multiplicity = 1

 SCF Done:  E(RHF) =  -661.284082846     A.U. after   17 cycles
 E2 =    -0.2034253869D+01 EUMP2 =    -0.66331833671497D+03
 SCF Done:  E(RHF) =  -661.297483376     A.U. after   15 cycles
 E2 =    -0.2032423910D+01 EUMP2 =    -0.66332990728578D+03
 SCF Done:  E(RHF) =  -661.298876823     A.U. after   15 cycles
 E2 =    -0.2032978222D+01 EUMP2 =    -0.66333185504524D+03
 SCF Done:  E(RHF) =  -661.298950340     A.U. after   15 cycles
 E2 =    -0.2033841386D+01 EUMP2 =    -0.66333279172605D+03
 SCF Done:  E(RHF) =  -661.299892940     A.U. after   14 cycles
 E2 =    -0.2033835585D+01 EUMP2 =    -0.66333372852499D+03
 SCF Done:  E(RHF) =  -661.300450960     A.U. after   12 cycles
 E2 =    -0.2033401928D+01 EUMP2 =    -0.66333385288869D+03
 SCF Done:  E(RHF) =  -661.300741515     A.U. after   11 cycles
 E2 =    -0.2033140483D+01 EUMP2 =    -0.66333388199854D+03
 SCF Done:  E(RHF) =  -661.300658847     A.U. after   11 cycles
 E2 =    -0.2033231308D+01 EUMP2 =    -0.66333389015516D+03
 SCF Done:  E(RHF) =  -661.300574162     A.U. after   10 cycles
 E2 =    -0.2033317431D+01 EUMP2 =    -0.66333389159299D+03
 Optimization completed.
    -- Stationary point found.

                          Input orientation:
 ---------------------------------------------------------------------
 Center     Atomic      Atomic             Coordinates (Angstroms)
 Number     Number       Type             X           Y           Z
 ---------------------------------------------------------------------
      1          8           0       -3.482791   -1.394748   -0.353088
      2          7           0       -3.095858   -0.233418   -0.105737
      3          8           0       -3.880994    0.721198    0.072045
      4          6           0       -1.698285   -0.022351   -0.012945
      5          6           0       -1.305071    1.261895    0.272052
      6          7           0       -0.060494    1.748448    0.380428
      7          6           0        1.203205    1.023238    0.356035
      8          1           0        1.848880    1.553970    1.072051
      9          6           0        1.909401    1.033692   -0.998222
     10          6           0        3.307203    0.426779   -0.830024
     11          6           0        3.257297   -0.968967   -0.202640
     12          6           0        2.458884   -0.978935    1.102823
     13          6           0        1.050543   -0.423330    0.863817
     14          1           0        0.472554   -0.400966    1.801341
     15          7           0        0.404680   -1.313234   -0.095635
     16          6           0       -0.840629   -1.131711   -0.395151
     17          1           0       -2.096696    1.991398    0.418791
     18          1           0       -0.000636    2.735438    0.602139
     19          1           0        1.316952    0.456226   -1.715760
     20          1           0        1.976830    2.061516   -1.376054
     21          1           0        3.813521    0.387905   -1.801267
     22          1           0        3.905527    1.093408   -0.192746
     23          1           0        2.781414   -1.666009   -0.899454
     24          1           0        4.275910   -1.332501   -0.022543
     25          1           0        2.371218   -2.000869    1.486174
     26          1           0        2.967639   -0.381988    1.872365
     27          1           0       -1.297205   -1.882093   -1.039777
 ---------------------------------------------------------------------

 Alpha  occ. eigenvalues --  -20.58820 -20.58454 -15.84409 -15.64394 -15.56159
 Alpha  occ. eigenvalues --  -11.35208 -11.29735 -11.29549 -11.28392 -11.27203
 Alpha  occ. eigenvalues --  -11.23823 -11.23278 -11.22754 -11.22148  -1.56966
 Alpha  occ. eigenvalues --   -1.36272  -1.31185  -1.23150  -1.15143  -1.10312
 Alpha  occ. eigenvalues --   -1.02937  -1.01535  -0.94714  -0.89772  -0.85667
 Alpha  occ. eigenvalues --   -0.82508  -0.78658  -0.77410  -0.75303  -0.72089
 Alpha  occ. eigenvalues --   -0.69792  -0.69323  -0.67815  -0.64923  -0.63816
 Alpha  occ. eigenvalues --   -0.62443  -0.60260  -0.57796  -0.57073  -0.55119
 Alpha  occ. eigenvalues --   -0.54647  -0.50831  -0.50118  -0.48692  -0.48142
 Alpha  occ. eigenvalues --   -0.47143  -0.46194  -0.45964  -0.43460  -0.41740
 Alpha  occ. eigenvalues --   -0.39900  -0.33925
 Alpha virt. eigenvalues --    0.07195   0.11898   0.17243   0.21815   0.24103
 Alpha virt. eigenvalues --    0.25718   0.27128   0.28719   0.28992   0.29643
 Alpha virt. eigenvalues --    0.30718   0.31757   0.31978   0.32716   0.33906

 Mulliken charges:
               1
     1  O   -0.473561
     2  N    0.485791
     3  O   -0.511643
     4  C    0.007445
     5  C    0.191679
     6  N   -0.778533
     7  C    0.059864
     8  H    0.180754
     9  C   -0.301790
    10  C   -0.328118
    11  C   -0.321584
    12  C   -0.306795
    13  C   -0.036893
    14  H    0.190111
    15  N   -0.510198
    16  C    0.121889
    17  H    0.296965
    18  H    0.405788
    19  H    0.190790
    20  H    0.161534
    21  H    0.175032
    22  H    0.149561
    23  H    0.200123
    24  H    0.164859
    25  H    0.187428
    26  H    0.150518
    27  H    0.248986
 Sum of Mulliken charges =  -0.00000

 Dipole moment (field-independent basis, Debye):
    X=              5.6029    Y=              4.8844    Z=              1.2540  Tot=              7.5381
 Quadrupole moment (field-independent basis, Debye-Ang):
   XX=           -106.6768   YY=            -79.1238   ZZ=            -81.4086
   XY=             -1.9429   XZ=             -0.0159   YZ=              1.8155

 Normal termination of Gaussian 16 at Sat Jul  1 07:30:46 2023.
