 Gaussian 16, Revision C.02,
 Gaussian 16:  ES64L-G16RevC.02  7-Dec-2021

 ---------------------------------------------------------
 #MP2/6-31G* SCF=Tight Opt=(ModRedun, MaxCycle=20 ) NoSymm
 ---------------------------------------------------------

 --------
 MolName:
 --------
 Symbolic Z-matrix:
 Charge =  0 Multiplicity = 1

 SCF Done:  E(RHF) =  -661.284511021     A.U. after   16 cycles
 E2 =    -0.2035232665D+01 EUMP2 =    -0.66331974368593D+03
 SCF Done:  E(RHF) =  -661.297749561     A.U. after   15 cycles
 E2 =    -0.2033222236D+01 EUMP2 =    -0.66333097179725D+03
 SCF Done:  E(RHF) =  -661.298332970     A.U. after   15 cycles
 E2 =    -0.2033898018D+01 EUMP2 =    -0.66333223098729D+03
 SCF Done:  E(RHF) =  -661.298294198     A.U. after   15 cycles
 E2 =    -0.2034867680D+01 EUMP2 =    -0.66333316187774D+03
 SCF Done:  E(RHF) =  -661.299616263     A.U. after   14 cycles
 E2 =    -0.2034811805D+01 EUMP2 =    -0.66333442806810D+03
 SCF Done:  E(RHF) =  -661.300198170     A.U. after   12 cycles
 E2 =    -0.2034399419D+01 EUMP2 =    -0.66333459758870D+03
 SCF Done:  E(RHF) =  -661.300521568     A.U. after   12 cycles
 E2 =    -0.2034116206D+01 EUMP2 =    -0.66333463777403D+03
 SCF Done:  E(RHF) =  -661.300447738     A.U. after   11 cycles
 E2 =    -0.2034199709D+01 EUMP2 =    -0.66333464744685D+03
 SCF Done:  E(RHF) =  -661.300366597     A.U. after   10 cycles
 E2 =    -0.2034282750D+01 EUMP2 =    -0.66333464934717D+03
 Optimization completed.
    -- Stationary point found.

                          Input orientation:
 ---------------------------------------------------------------------
 Center     Atomic      Atomic             Coordinates (Angstroms)
 Number     Number       Type             X           Y           Z
 ---------------------------------------------------------------------
      1          8           0       -3.506499   -1.390832   -0.369904
      2          7           0       -3.121110   -0.232659   -0.117402
      3          8           0       -3.895694    0.728064    0.057077
      4          6           0       -1.686619   -0.023878   -0.008766
      5          6           0       -1.301400    1.260812    0.275230
      6          7           0       -0.057151    1.750348    0.385756
      7          6           0        1.205771    1.024170    0.358805
      8          1           0        1.853721    1.553548    1.073689
      9          6           0        1.908731    1.034608   -0.997291
     10          6           0        3.307171    0.428067   -0.833374
     11          6           0        3.259422   -0.967723   -0.206045
     12          6           0        2.464863   -0.977655    1.101675
     13          6           0        1.055074   -0.424179    0.865334
     14          1           0        0.478834   -0.402383    1.803940
     15          7           0        0.408392   -1.317808   -0.090381
     16          6           0       -0.838973   -1.138098   -0.385599
     17          1           0       -2.096187    1.987699    0.418809
     18          1           0        0.001851    2.735508    0.614952
     19          1           0        1.314301    0.456785   -1.713002
     20          1           0        1.974564    2.062363   -1.375515
     21          1           0        3.810771    0.389476   -1.806060
     22          1           0        3.907166    1.094711   -0.197681
     23          1           0        2.781508   -1.664874   -0.901360
     24          1           0        4.278649   -1.331121   -0.029061
     25          1           0        2.379576   -1.999359    1.486122
     26          1           0        2.974952   -0.379312    1.869229
     27          1           0       -1.300684   -1.893289   -1.021179
 ---------------------------------------------------------------------

 Alpha  occ. eigenvalues --  -20.59237 -20.58904 -15.84723 -15.64136 -15.56110
 Alpha  occ. eigenvalues --  -11.35018 -11.29623 -11.29558 -11.28627 -11.27133
 Alpha  occ. eigenvalues --  -11.23727 -11.23207 -11.22691 -11.22089  -1.57118
 Alpha  occ. eigenvalues --   -1.36710  -1.30977  -1.23067  -1.14703  -1.09818
 Alpha  occ. eigenvalues --   -1.02805  -1.01307  -0.94481  -0.89685  -0.85565
 Alpha  occ. eigenvalues --   -0.82448  -0.78609  -0.77412  -0.75201  -0.72020
 Alpha  occ. eigenvalues --   -0.69771  -0.69439  -0.67821  -0.64892  -0.63779
 Alpha  occ. eigenvalues --   -0.62368  -0.60280  -0.57700  -0.57001  -0.55077
 Alpha  occ. eigenvalues --   -0.54582  -0.50761  -0.50110  -0.48656  -0.48103
 Alpha  occ. eigenvalues --   -0.47372  -0.46146  -0.46044  -0.43678  -0.41695
 Alpha  occ. eigenvalues --   -0.39847  -0.33829
 Alpha virt. eigenvalues --    0.07466   0.11800   0.17307   0.21848   0.24112
 Alpha virt. eigenvalues --    0.25664   0.27134   0.28693   0.29044   0.29636
 Alpha virt. eigenvalues --    0.30683   0.31799   0.32036   0.32767   0.33951

 Mulliken charges:
               1
     1  O   -0.467208
     2  N    0.491290
     3  O   -0.504051
     4  C    0.000484
     5  C    0.188903
     6  N   -0.780279
     7  C    0.060208
     8  H    0.180087
     9  C   -0.301413
    10  C   -0.327950
    11  C   -0.321495
    12  C   -0.306655
    13  C   -0.037154
    14  H    0.189949
    15  N   -0.511195
    16  C    0.119931
    17  H    0.295268
    18  H    0.404867
    19  H    0.190200
    20  H    0.161385
    21  H    0.174645
    22  H    0.149360
    23  H    0.199947
    24  H    0.164540
    25  H    0.187056
    26  H    0.150342
    27  H    0.248938
 Sum of Mulliken charges =  -0.00000

 Dipole moment (field-independent basis, Debye):
    X=              5.4156    Y=              4.7971    Z=              1.2781  Tot=              7.3467
 Quadrupole moment (field-independent basis, Debye-Ang):
   XX=           -106.1397   YY=            -79.2229   ZZ=            -81.5021
   XY=             -1.7675   XZ=             -0.1224   YZ=              1.8562

 Normal termination of Gaussian 16 at Sat Jul  1 06:21:35 2023.
