 Gaussian 16, Revision C.02,
 Gaussian 16:  ES64L-G16RevC.02  7-Dec-2021

 ---------------------------------------------------------
 #MP2/6-31G* SCF=Tight Opt=(ModRedun, MaxCycle=20 ) NoSymm
 ---------------------------------------------------------

 --------
 MolName:
 --------
 Symbolic Z-matrix:
 Charge =  0 Multiplicity = 1

 SCF Done:  E(RHF) =  -661.283359905     A.U. after   16 cycles
 E2 =    -0.2036245141D+01 EUMP2 =    -0.66331960504550D+03
 SCF Done:  E(RHF) =  -661.296545245     A.U. after   15 cycles
 E2 =    -0.2034032858D+01 EUMP2 =    -0.66333057810326D+03
 SCF Done:  E(RHF) =  -661.295660522     A.U. after   15 cycles
 E2 =    -0.2034909604D+01 EUMP2 =    -0.66333057012645D+03
 SCF Done:  E(RHF) =  -661.296075184     A.U. after   15 cycles
 E2 =    -0.2035889626D+01 EUMP2 =    -0.66333196480991D+03
 SCF Done:  E(RHF) =  -661.298148336     A.U. after   14 cycles
 E2 =    -0.2035597988D+01 EUMP2 =    -0.66333374632341D+03
 SCF Done:  E(RHF) =  -661.298702589     A.U. after   12 cycles
 E2 =    -0.2035220961D+01 EUMP2 =    -0.66333392354912D+03
 SCF Done:  E(RHF) =  -661.298929680     A.U. after   12 cycles
 E2 =    -0.2035051017D+01 EUMP2 =    -0.66333398069622D+03
 SCF Done:  E(RHF) =  -661.298848651     A.U. after   11 cycles
 E2 =    -0.2035141845D+01 EUMP2 =    -0.66333399049673D+03
 SCF Done:  E(RHF) =  -661.298759890     A.U. after   11 cycles
 E2 =    -0.2035232879D+01 EUMP2 =    -0.66333399276925D+03
 SCF Done:  E(RHF) =  -661.298766144     A.U. after   10 cycles
 E2 =    -0.2035226990D+01 EUMP2 =    -0.66333399313445D+03
 Optimization completed.
    -- Stationary point found.

                          Input orientation:
 ---------------------------------------------------------------------
 Center     Atomic      Atomic             Coordinates (Angstroms)
 Number     Number       Type             X           Y           Z
 ---------------------------------------------------------------------
      1          8           0       -3.530482   -1.386450   -0.386875
      2          7           0       -3.146229   -0.231231   -0.130013
      3          8           0       -3.910309    0.735651    0.040758
      4          6           0       -1.674947   -0.025029   -0.005508
      5          6           0       -1.297612    1.260207    0.276867
      6          7           0       -0.053590    1.752684    0.389339
      7          6           0        1.208314    1.025177    0.361181
      8          1           0        1.858048    1.553328    1.075329
      9          6           0        1.909197    1.034983   -0.996139
     10          6           0        3.308043    0.428667   -0.835123
     11          6           0        3.261730   -0.966933   -0.207402
     12          6           0        2.469962   -0.976258    1.101924
     13          6           0        1.059020   -0.424687    0.867064
     14          1           0        0.483836   -0.403016    1.806323
     15          7           0        0.412045   -1.322359   -0.085097
     16          6           0       -0.837142   -1.144216   -0.376877
     17          1           0       -2.095530    1.984643    0.416702
     18          1           0        0.004580    2.736225    0.624982
     19          1           0        1.313273    0.456628   -1.710317
     20          1           0        1.973920    2.062521   -1.375113
     21          1           0        3.809737    0.389919   -1.808827
     22          1           0        3.909284    1.095482   -0.200743
     23          1           0        2.782253   -1.664369   -0.901388
     24          1           0        4.281367   -1.330315   -0.032538
     25          1           0        2.386545   -1.997627    1.487695
     26          1           0        2.980957   -0.376436    1.867717
     27          1           0       -1.303248   -1.903211   -1.004920
 ---------------------------------------------------------------------

 Alpha  occ. eigenvalues --  -20.59585 -20.59284 -15.84954 -15.63916 -15.56083
 Alpha  occ. eigenvalues --  -11.34860 -11.29584 -11.29531 -11.28867 -11.27081
 Alpha  occ. eigenvalues --  -11.23648 -11.23149 -11.22641 -11.22041  -1.57242
 Alpha  occ. eigenvalues --   -1.37087  -1.30797  -1.23003  -1.14354  -1.09329
 Alpha  occ. eigenvalues --   -1.02696  -1.01079  -0.94258  -0.89597  -0.85479
 Alpha  occ. eigenvalues --   -0.82401  -0.78557  -0.77393  -0.75119  -0.71955
 Alpha  occ. eigenvalues --   -0.69863  -0.69442  -0.67810  -0.64875  -0.63748
 Alpha  occ. eigenvalues --   -0.62304  -0.60303  -0.57620  -0.56943  -0.55047
 Alpha  occ. eigenvalues --   -0.54531  -0.50705  -0.50107  -0.48562  -0.48064
 Alpha  occ. eigenvalues --   -0.47599  -0.46157  -0.46016  -0.43862  -0.41656
 Alpha  occ. eigenvalues --   -0.39806  -0.33754
 Alpha virt. eigenvalues --    0.07726   0.11713   0.17339   0.21865   0.24097
 Alpha virt. eigenvalues --    0.25608   0.27124   0.28615   0.29079   0.29622
 Alpha virt. eigenvalues --    0.30629   0.31825   0.32082   0.32807   0.33977

 Mulliken charges:
               1
     1  O   -0.461741
     2  N    0.496203
     3  O   -0.497363
     4  C   -0.005882
     5  C    0.186380
     6  N   -0.781725
     7  C    0.060460
     8  H    0.179532
     9  C   -0.301069
    10  C   -0.327792
    11  C   -0.321420
    12  C   -0.306547
    13  C   -0.037542
    14  H    0.189860
    15  N   -0.511958
    16  C    0.118245
    17  H    0.293852
    18  H    0.404099
    19  H    0.189653
    20  H    0.161290
    21  H    0.174316
    22  H    0.149191
    23  H    0.199790
    24  H    0.164280
    25  H    0.186761
    26  H    0.150218
    27  H    0.248910
 Sum of Mulliken charges =  -0.00000

 Dipole moment (field-independent basis, Debye):
    X=              5.2624    Y=              4.7194    Z=              1.3001  Tot=              7.1872
 Quadrupole moment (field-independent basis, Debye-Ang):
   XX=           -105.7117   YY=            -79.3074   ZZ=            -81.5860
   XY=             -1.6102   XZ=             -0.2289   YZ=              1.8918

 Normal termination of Gaussian 16 at Sat Jul  1 06:48:06 2023.
