 Gaussian 16, Revision C.02,
 Gaussian 16:  ES64L-G16RevC.02  7-Dec-2021

 ---------------------------------------------------------
 #MP2/6-31G* SCF=Tight Opt=(ModRedun, MaxCycle=20 ) NoSymm
 ---------------------------------------------------------

 --------
 MolName:
 --------
 Symbolic Z-matrix:
 Charge =  0 Multiplicity = 1

 SCF Done:  E(RHF) =  -661.280940023     A.U. after   16 cycles
 E2 =    -0.2037295544D+01 EUMP2 =    -0.66331823556637D+03
 SCF Done:  E(RHF) =  -661.294167472     A.U. after   15 cycles
 E2 =    -0.2034868558D+01 EUMP2 =    -0.66332903603014D+03
 SCF Done:  E(RHF) =  -661.293398828     A.U. after   15 cycles
 E2 =    -0.2035699444D+01 EUMP2 =    -0.66332909827200D+03
 SCF Done:  E(RHF) =  -661.291580517     A.U. after   17 cycles
 E2 =    -0.2037174091D+01 EUMP2 =    -0.66332875460728D+03
 SCF Done:  E(RHF) =  -661.295060670     A.U. after   14 cycles
 E2 =    -0.2036691143D+01 EUMP2 =    -0.66333175181297D+03
 SCF Done:  E(RHF) =  -661.295607563     A.U. after   14 cycles
 E2 =    -0.2036505131D+01 EUMP2 =    -0.66333211269387D+03
 SCF Done:  E(RHF) =  -661.296200226     A.U. after   12 cycles
 E2 =    -0.2035991402D+01 EUMP2 =    -0.66333219162735D+03
 SCF Done:  E(RHF) =  -661.296212964     A.U. after   11 cycles
 E2 =    -0.2036000147D+01 EUMP2 =    -0.66333221311025D+03
 SCF Done:  E(RHF) =  -661.296134391     A.U. after   11 cycles
 E2 =    -0.2036081777D+01 EUMP2 =    -0.66333221616811D+03
 Optimization completed.
    -- Stationary point found.

                          Input orientation:
 ---------------------------------------------------------------------
 Center     Atomic      Atomic             Coordinates (Angstroms)
 Number     Number       Type             X           Y           Z
 ---------------------------------------------------------------------
      1          8           0       -3.554333   -1.381996   -0.404650
      2          7           0       -3.171598   -0.230044   -0.142196
      3          8           0       -3.925820    0.742050    0.026790
      4          6           0       -1.663738   -0.026035   -0.001643
      5          6           0       -1.293991    1.260050    0.278236
      6          7           0       -0.050276    1.754899    0.392395
      7          6           0        1.210798    1.025949    0.363280
      8          1           0        1.862005    1.553221    1.076566
      9          6           0        1.909848    1.035294   -0.995156
     10          6           0        3.309098    0.429286   -0.836640
     11          6           0        3.264154   -0.966182   -0.208571
     12          6           0        2.474762   -0.975035    1.102132
     13          6           0        1.062701   -0.425395    0.868452
     14          1           0        0.488590   -0.403888    1.808338
     15          7           0        0.415656   -1.326157   -0.080808
     16          6           0       -0.834994   -1.148951   -0.369504
     17          1           0       -2.094958    1.982048    0.414422
     18          1           0        0.007654    2.736354    0.635934
     19          1           0        1.312802    0.456481   -1.708016
     20          1           0        1.973447    2.062680   -1.374550
     21          1           0        3.809018    0.390472   -1.811222
     22          1           0        3.911385    1.096230   -0.203460
     23          1           0        2.783462   -1.663888   -0.901374
     24          1           0        4.284137   -1.329411   -0.035533
     25          1           0        2.393287   -1.995978    1.489284
     26          1           0        2.986255   -0.373579    1.866257
     27          1           0       -1.306362   -1.911445   -0.989764
 ---------------------------------------------------------------------

 Alpha  occ. eigenvalues --  -20.59868 -20.59593 -15.85111 -15.63736 -15.56067
 Alpha  occ. eigenvalues --  -11.34734 -11.29618 -11.29458 -11.29100 -11.27041
 Alpha  occ. eigenvalues --  -11.23581 -11.23102 -11.22602 -11.22002  -1.57353
 Alpha  occ. eigenvalues --   -1.37417  -1.30653  -1.22965  -1.14082  -1.08863
 Alpha  occ. eigenvalues --   -1.02611  -1.00855  -0.94046  -0.89506  -0.85409
 Alpha  occ. eigenvalues --   -0.82367  -0.78501  -0.77364  -0.75051  -0.71904
 Alpha  occ. eigenvalues --   -0.70006  -0.69385  -0.67797  -0.64868  -0.63732
 Alpha  occ. eigenvalues --   -0.62258  -0.60324  -0.57557  -0.56900  -0.55028
 Alpha  occ. eigenvalues --   -0.54495  -0.50663  -0.50115  -0.48444  -0.48019
 Alpha  occ. eigenvalues --   -0.47777  -0.46175  -0.45962  -0.44016  -0.41627
 Alpha  occ. eigenvalues --   -0.39768  -0.33693
 Alpha virt. eigenvalues --    0.07980   0.11646   0.17333   0.21867   0.24056
 Alpha virt. eigenvalues --    0.25558   0.27083   0.28457   0.29102   0.29610
 Alpha virt. eigenvalues --    0.30557   0.31840   0.32118   0.32837   0.33958

 Mulliken charges:
               1
     1  O   -0.457085
     2  N    0.500516
     3  O   -0.491572
     4  C   -0.011608
     5  C    0.184312
     6  N   -0.782735
     7  C    0.060407
     8  H    0.179082
     9  C   -0.300723
    10  C   -0.327682
    11  C   -0.321371
    12  C   -0.306468
    13  C   -0.037893
    14  H    0.189811
    15  N   -0.512527
    16  C    0.116444
    17  H    0.292600
    18  H    0.403474
    19  H    0.189218
    20  H    0.161260
    21  H    0.174060
    22  H    0.149065
    23  H    0.199669
    24  H    0.164078
    25  H    0.186526
    26  H    0.150111
    27  H    0.249030
 Sum of Mulliken charges =  -0.00000

 Dipole moment (field-independent basis, Debye):
    X=              5.1421    Y=              4.6528    Z=              1.3234  Tot=              7.0598
 Quadrupole moment (field-independent basis, Debye-Ang):
   XX=           -105.3866   YY=            -79.3767   ZZ=            -81.6574
   XY=             -1.4724   XZ=             -0.3230   YZ=              1.9234

 Normal termination of Gaussian 16 at Sat Jul  1 07:11:17 2023.
