 Gaussian 16, Revision C.02,
 Gaussian 16:  ES64L-G16RevC.02  7-Dec-2021

 ---------------------------------------------------------
 #MP2/6-31G* SCF=Tight Opt=(ModRedun, MaxCycle=20 ) NoSymm
 ---------------------------------------------------------

 --------
 MolName:
 --------
 Symbolic Z-matrix:
 Charge =  0 Multiplicity = 1

 SCF Done:  E(RHF) =  -661.282888535     A.U. after   17 cycles
 E2 =    -0.2033669558D+01 EUMP2 =    -0.66331655809288D+03
 SCF Done:  E(RHF) =  -661.296451321     A.U. after   15 cycles
 E2 =    -0.2031935221D+01 EUMP2 =    -0.66332838654150D+03
 SCF Done:  E(RHF) =  -661.298246309     A.U. after   15 cycles
 E2 =    -0.2032415330D+01 EUMP2 =    -0.66333066163854D+03
 SCF Done:  E(RHF) =  -661.298473498     A.U. after   15 cycles
 E2 =    -0.2033192904D+01 EUMP2 =    -0.66333166640161D+03
 SCF Done:  E(RHF) =  -661.299233996     A.U. after   14 cycles
 E2 =    -0.2033208126D+01 EUMP2 =    -0.66333244212206D+03
 SCF Done:  E(RHF) =  -661.299782521     A.U. after   12 cycles
 E2 =    -0.2032766447D+01 EUMP2 =    -0.66333254896854D+03
 SCF Done:  E(RHF) =  -661.300053370     A.U. after   11 cycles
 E2 =    -0.2032520177D+01 EUMP2 =    -0.66333257354703D+03
 SCF Done:  E(RHF) =  -661.299975644     A.U. after   11 cycles
 E2 =    -0.2032605193D+01 EUMP2 =    -0.66333258083756D+03
 SCF Done:  E(RHF) =  -661.299888469     A.U. after   10 cycles
 E2 =    -0.2032693696D+01 EUMP2 =    -0.66333258216499D+03
 Optimization completed.
    -- Stationary point found.

                          Input orientation:
 ---------------------------------------------------------------------
 Center     Atomic      Atomic             Coordinates (Angstroms)
 Number     Number       Type             X           Y           Z
 ---------------------------------------------------------------------
      1          8           0       -3.468238   -1.397877   -0.341191
      2          7           0       -3.080539   -0.234596   -0.096673
      3          8           0       -3.872428    0.715813    0.084319
      4          6           0       -1.705601   -0.021866   -0.014182
      5          6           0       -1.307539    1.262185    0.271260
      6          7           0       -0.062762    1.747016    0.377699
      7          6           0        1.201500    1.022515    0.354236
      8          1           0        1.845948    1.553962    1.070863
      9          6           0        1.909238    1.033493   -0.999126
     10          6           0        3.306795    0.426519   -0.828942
     11          6           0        3.255987   -0.969386   -0.201913
     12          6           0        2.455637   -0.979877    1.102426
     13          6           0        1.048017   -0.423117    0.862448
     14          1           0        0.469301   -0.400744    1.799524
     15          7           0        0.402431   -1.310431   -0.099420
     16          6           0       -0.841714   -1.127723   -0.401042
     17          1           0       -2.097288    1.993123    0.420416
     18          1           0       -0.002364    2.735041    0.595101
     19          1           0        1.317871    0.456399   -1.717776
     20          1           0        1.977376    2.061489   -1.376395
     21          1           0        3.814460    0.387835   -1.799471
     22          1           0        3.904199    1.093040   -0.190702
     23          1           0        2.781262   -1.666236   -0.899696
     24          1           0        4.274336   -1.332878   -0.020342
     25          1           0        2.366800   -2.002065    1.484840
     26          1           0        2.963733   -0.383938    1.873193
     27          1           0       -1.295408   -1.874706   -1.051471
 ---------------------------------------------------------------------

 Alpha  occ. eigenvalues --  -20.58529 -20.58142 -15.84173 -15.64572 -15.56198
 Alpha  occ. eigenvalues --  -11.35340 -11.29813 -11.29551 -11.28250 -11.27254
 Alpha  occ. eigenvalues --  -11.23890 -11.23326 -11.22799 -11.22190  -1.56864
 Alpha  occ. eigenvalues --   -1.35976  -1.31326  -1.23210  -1.15462  -1.10609
 Alpha  occ. eigenvalues --   -1.03030  -1.01673  -0.94862  -0.89828  -0.85737
 Alpha  occ. eigenvalues --   -0.82552  -0.78692  -0.77393  -0.75374  -0.72133
 Alpha  occ. eigenvalues --   -0.69840  -0.69231  -0.67798  -0.64947  -0.63842
 Alpha  occ. eigenvalues --   -0.62494  -0.60246  -0.57863  -0.57125  -0.55151
 Alpha  occ. eigenvalues --   -0.54693  -0.50880  -0.50128  -0.48680  -0.48166
 Alpha  occ. eigenvalues --   -0.47026  -0.46240  -0.45851  -0.43313  -0.41769
 Alpha  occ. eigenvalues --   -0.39936  -0.33993
 Alpha virt. eigenvalues --    0.07027   0.11964   0.17190   0.21787   0.24087
 Alpha virt. eigenvalues --    0.25749   0.27122   0.28717   0.28952   0.29646
 Alpha virt. eigenvalues --    0.30732   0.31725   0.31937   0.32679   0.33872

 Mulliken charges:
               1
     1  O   -0.477903
     2  N    0.482221
     3  O   -0.516758
     4  C    0.011982
     5  C    0.193532
     6  N   -0.777286
     7  C    0.059568
     8  H    0.181223
     9  C   -0.302033
    10  C   -0.328232
    11  C   -0.321647
    12  C   -0.306901
    13  C   -0.036764
    14  H    0.190242
    15  N   -0.509495
    16  C    0.123105
    17  H    0.298120
    18  H    0.406430
    19  H    0.191185
    20  H    0.161651
    21  H    0.175302
    22  H    0.149702
    23  H    0.200247
    24  H    0.165083
    25  H    0.187694
    26  H    0.150648
    27  H    0.249086
 Sum of Mulliken charges =  -0.00000

 Dipole moment (field-independent basis, Debye):
    X=              5.7342    Y=              4.9444    Z=              1.2369  Tot=              7.6718
 Quadrupole moment (field-independent basis, Debye-Ang):
   XX=           -107.0586   YY=            -79.0599   ZZ=            -81.3439
   XY=             -2.0673   XZ=              0.0694   YZ=              1.7910

 Normal termination of Gaussian 16 at Fri Jun 30 19:57:29 2023.
