 Gaussian 16, Revision C.02,
 Gaussian 16:  ES64L-G16RevC.02  7-Dec-2021

 ---------------------------------------------------------
 #MP2/6-31G* SCF=Tight Opt=(ModRedun, MaxCycle=20 ) NoSymm
 ---------------------------------------------------------

 --------
 MolName:
 --------
 Symbolic Z-matrix:
 Charge =  0 Multiplicity = 1

 SCF Done:  E(RHF) =  -661.278968394     A.U. after   16 cycles
 E2 =    -0.2037612673D+01 EUMP2 =    -0.66331658106687D+03
 SCF Done:  E(RHF) =  -661.295737324     A.U. after   15 cycles
 E2 =    -0.2033121018D+01 EUMP2 =    -0.66332885834137D+03
 SCF Done:  E(RHF) =  -661.284057088     A.U. after   18 cycles
 E2 =    -0.2035330020D+01 EUMP2 =    -0.66331938710856D+03
 SCF Done:  E(RHF) =  -661.293924385     A.U. after   15 cycles
 E2 =    -0.2035630011D+01 EUMP2 =    -0.66332955439615D+03
 SCF Done:  E(RHF) =  -661.295789137     A.U. after   14 cycles
 E2 =    -0.2035407268D+01 EUMP2 =    -0.66333119640475D+03
 SCF Done:  E(RHF) =  -661.296267464     A.U. after   12 cycles
 E2 =    -0.2035141071D+01 EUMP2 =    -0.66333140853438D+03
 SCF Done:  E(RHF) =  -661.296523310     A.U. after   12 cycles
 E2 =    -0.2034942947D+01 EUMP2 =    -0.66333146625653D+03
 SCF Done:  E(RHF) =  -661.296437614     A.U. after   11 cycles
 E2 =    -0.2035033594D+01 EUMP2 =    -0.66333147120793D+03
 SCF Done:  E(RHF) =  -661.296400176     A.U. after   10 cycles
 E2 =    -0.2035071667D+01 EUMP2 =    -0.66333147184233D+03
 Optimization completed.
    -- Stationary point found.

                          Input orientation:
 ---------------------------------------------------------------------
 Center     Atomic      Atomic             Coordinates (Angstroms)
 Number     Number       Type             X           Y           Z
 ---------------------------------------------------------------------
      1          8           0       -3.449709   -1.464261   -0.070930
      2          7           0       -3.106163   -0.267547   -0.004909
      3          8           0       -3.905816    0.676221    0.146437
      4          6           0       -1.685610    0.009823   -0.110398
      5          6           0       -1.304236    1.278996    0.240715
      6          7           0       -0.056561    1.759259    0.368672
      7          6           0        1.199959    1.023070    0.357974
      8          1           0        1.836316    1.532408    1.097673
      9          6           0        1.933500    1.054499   -0.981933
     10          6           0        3.324526    0.436879   -0.798023
     11          6           0        3.254279   -0.969890   -0.198021
     12          6           0        2.430104   -0.998749    1.090965
     13          6           0        1.029419   -0.432154    0.833174
     14          1           0        0.432541   -0.425532    1.758759
     15          7           0        0.399060   -1.309497   -0.150999
     16          6           0       -0.840392   -1.114593   -0.466180
     17          1           0       -2.082166    2.038392    0.247859
     18          1           0        0.011514    2.752800    0.555400
     19          1           0        1.351775    0.493862   -1.721431
     20          1           0        2.014054    2.088631   -1.339774
     21          1           0        3.849734    0.413194   -1.759716
     22          1           0        3.913658    1.088002   -0.136666
     23          1           0        2.788318   -1.651176   -0.916822
     24          1           0        4.267051   -1.342906   -0.004746
     25          1           0        2.329417   -2.026888    1.453919
     26          1           0        2.926115   -0.418225    1.881034
     27          1           0       -1.297697   -1.860597   -1.117032
 ---------------------------------------------------------------------

 Alpha  occ. eigenvalues --  -20.59232 -20.58856 -15.84655 -15.64086 -15.56200
 Alpha  occ. eigenvalues --  -11.35068 -11.29629 -11.29598 -11.28577 -11.27151
 Alpha  occ. eigenvalues --  -11.23778 -11.23233 -11.22690 -11.22104  -1.57054
 Alpha  occ. eigenvalues --   -1.36680  -1.30928  -1.23090  -1.14695  -1.09819
 Alpha  occ. eigenvalues --   -1.02814  -1.01336  -0.94497  -0.89639  -0.85604
 Alpha  occ. eigenvalues --   -0.82458  -0.78441  -0.77457  -0.75220  -0.71946
 Alpha  occ. eigenvalues --   -0.69840  -0.69295  -0.67757  -0.65019  -0.63735
 Alpha  occ. eigenvalues --   -0.62627  -0.60262  -0.57453  -0.56987  -0.55071
 Alpha  occ. eigenvalues --   -0.54632  -0.50754  -0.50024  -0.48630  -0.48084
 Alpha  occ. eigenvalues --   -0.47417  -0.46138  -0.46013  -0.43605  -0.41692
 Alpha  occ. eigenvalues --   -0.39905  -0.33789
 Alpha virt. eigenvalues --    0.07483   0.11888   0.17283   0.21508   0.23620
 Alpha virt. eigenvalues --    0.25233   0.27126   0.28986   0.29000   0.29738
 Alpha virt. eigenvalues --    0.30422   0.31631   0.32111   0.32702   0.33923

 Mulliken charges:
               1
     1  O   -0.468197
     2  N    0.499805
     3  O   -0.502612
     4  C   -0.009124
     5  C    0.190833
     6  N   -0.776899
     7  C    0.061839
     8  H    0.180315
     9  C   -0.302362
    10  C   -0.327633
    11  C   -0.321661
    12  C   -0.306916
    13  C   -0.039559
    14  H    0.191532
    15  N   -0.507335
    16  C    0.128574
    17  H    0.289070
    18  H    0.404218
    19  H    0.189716
    20  H    0.160268
    21  H    0.174545
    22  H    0.149716
    23  H    0.199736
    24  H    0.164695
    25  H    0.187679
    26  H    0.150856
    27  H    0.238901
 Sum of Mulliken charges =  -0.00000

 Dipole moment (field-independent basis, Debye):
    X=              5.4028    Y=              4.9296    Z=              0.7705  Tot=              7.3542
 Quadrupole moment (field-independent basis, Debye-Ang):
   XX=           -105.8480   YY=            -79.2779   ZZ=            -81.4646
   XY=             -2.2583   XZ=              1.9525   YZ=              1.9540

 Normal termination of Gaussian 16 at Sun Jul  2 01:11:33 2023.
