 Gaussian 16, Revision C.02,
 Gaussian 16:  ES64L-G16RevC.02  7-Dec-2021

 ---------------------------------------------------------
 #MP2/6-31G* SCF=Tight Opt=(ModRedun, MaxCycle=20 ) NoSymm
 ---------------------------------------------------------

 --------
 MolName:
 --------
 Symbolic Z-matrix:
 Charge =  0 Multiplicity = 1

 SCF Done:  E(RHF) =  -661.281336898     A.U. after   16 cycles
 E2 =    -0.2037283581D+01 EUMP2 =    -0.66331862047869D+03
 SCF Done:  E(RHF) =  -661.298252175     A.U. after   15 cycles
 E2 =    -0.2032681979D+01 EUMP2 =    -0.66333093415427D+03
 SCF Done:  E(RHF) =  -661.292466929     A.U. after   17 cycles
 E2 =    -0.2034317012D+01 EUMP2 =    -0.66332678394075D+03
 SCF Done:  E(RHF) =  -661.294381421     A.U. after   15 cycles
 E2 =    -0.2035524851D+01 EUMP2 =    -0.66332990627224D+03
 SCF Done:  E(RHF) =  -661.298908412     A.U. after   11 cycles
 E2 =    -0.2033778995D+01 EUMP2 =    -0.66333268740718D+03
 SCF Done:  E(RHF) =  -661.298961720     A.U. after   14 cycles
 E2 =    -0.2034588263D+01 EUMP2 =    -0.66333354998321D+03
 SCF Done:  E(RHF) =  -661.299124424     A.U. after   12 cycles
 E2 =    -0.2034658041D+01 EUMP2 =    -0.66333378246538D+03
 SCF Done:  E(RHF) =  -661.299501296     A.U. after   12 cycles
 E2 =    -0.2034341582D+01 EUMP2 =    -0.66333384287727D+03
 SCF Done:  E(RHF) =  -661.299453083     A.U. after   11 cycles
 E2 =    -0.2034401480D+01 EUMP2 =    -0.66333385456285D+03
 SCF Done:  E(RHF) =  -661.299419990     A.U. after   10 cycles
 E2 =    -0.2034436177D+01 EUMP2 =    -0.66333385616695D+03
 Optimization completed.
    -- Stationary point found.

                          Input orientation:
 ---------------------------------------------------------------------
 Center     Atomic      Atomic             Coordinates (Angstroms)
 Number     Number       Type             X           Y           Z
 ---------------------------------------------------------------------
      1          8           0       -3.487050   -1.428971   -0.218792
      2          7           0       -3.116098   -0.249084   -0.062063
      3          8           0       -3.900450    0.706201    0.097493
      4          6           0       -1.684296   -0.007316   -0.061137
      5          6           0       -1.301567    1.269272    0.257837
      6          7           0       -0.056115    1.755146    0.377435
      7          6           0        1.203440    1.023738    0.358721
      8          1           0        1.845773    1.542730    1.086301
      9          6           0        1.921803    1.044892   -0.989372
     10          6           0        3.316557    0.432749   -0.815516
     11          6           0        3.257444   -0.968725   -0.202010
     12          6           0        2.448054   -0.988342    1.096449
     13          6           0        1.042713   -0.428487    0.849229
     14          1           0        0.456032   -0.414499    1.781369
     15          7           0        0.404313   -1.314517   -0.120499
     16          6           0       -0.839261   -1.127818   -0.425825
     17          1           0       -2.092029    2.011313    0.333110
     18          1           0        0.006625    2.744213    0.587962
     19          1           0        1.333598    0.475702   -1.717110
     20          1           0        1.995029    2.075938   -1.357343
     21          1           0        3.830965    0.401802   -1.782822
     22          1           0        3.911237    1.091551   -0.166806
     23          1           0        2.785350   -1.657863   -0.909224
     24          1           0        4.273475   -1.337015   -0.016899
     25          1           0        2.355136   -2.013363    1.470173
     26          1           0        2.951108   -0.398806    1.875340
     27          1           0       -1.298758   -1.878430   -1.069022
 ---------------------------------------------------------------------

 Alpha  occ. eigenvalues --  -20.59233 -20.58894 -15.84693 -15.64087 -15.56162
 Alpha  occ. eigenvalues --  -11.35014 -11.29607 -11.29606 -11.28606 -11.27144
 Alpha  occ. eigenvalues --  -11.23747 -11.23217 -11.22690 -11.22095  -1.57092
 Alpha  occ. eigenvalues --   -1.36700  -1.30942  -1.23082  -1.14701  -1.09824
 Alpha  occ. eigenvalues --   -1.02805  -1.01319  -0.94496  -0.89679  -0.85579
 Alpha  occ. eigenvalues --   -0.82458  -0.78542  -0.77434  -0.75212  -0.71980
 Alpha  occ. eigenvalues --   -0.69818  -0.69368  -0.67788  -0.64958  -0.63759
 Alpha  occ. eigenvalues --   -0.62500  -0.60279  -0.57577  -0.56994  -0.55079
 Alpha  occ. eigenvalues --   -0.54606  -0.50758  -0.50077  -0.48645  -0.48105
 Alpha  occ. eigenvalues --   -0.47395  -0.46093  -0.46081  -0.43649  -0.41697
 Alpha  occ. eigenvalues --   -0.39884  -0.33812
 Alpha virt. eigenvalues --    0.07476   0.11854   0.17319   0.21722   0.23901
 Alpha virt. eigenvalues --    0.25467   0.27165   0.28907   0.29021   0.29737
 Alpha virt. eigenvalues --    0.30579   0.31716   0.32070   0.32736   0.33953

 Mulliken charges:
               1
     1  O   -0.467545
     2  N    0.493937
     3  O   -0.504126
     4  C   -0.004297
     5  C    0.189149
     6  N   -0.780143
     7  C    0.061448
     8  H    0.180151
     9  C   -0.301808
    10  C   -0.327788
    11  C   -0.321589
    12  C   -0.306790
    13  C   -0.038321
    14  H    0.190710
    15  N   -0.509582
    16  C    0.126672
    17  H    0.294354
    18  H    0.404498
    19  H    0.189841
    20  H    0.160875
    21  H    0.174568
    22  H    0.149523
    23  H    0.199827
    24  H    0.164612
    25  H    0.187343
    26  H    0.150599
    27  H    0.243884
 Sum of Mulliken charges =  -0.00000

 Dipole moment (field-independent basis, Debye):
    X=              5.4103    Y=              4.8582    Z=              1.0311  Tot=              7.3441
 Quadrupole moment (field-independent basis, Debye-Ang):
   XX=           -106.0523   YY=            -79.2781   ZZ=            -81.4322
   XY=             -2.0339   XZ=              0.9037   YZ=              1.9200

 Normal termination of Gaussian 16 at Sun Jul  2 00:50:14 2023.
