 Gaussian 16, Revision C.02,
 Gaussian 16:  ES64L-G16RevC.02  7-Dec-2021

 ---------------------------------------------------------
 #MP2/6-31G* SCF=Tight Opt=(ModRedun, MaxCycle=20 ) NoSymm
 ---------------------------------------------------------

 --------
 MolName:
 --------
 Symbolic Z-matrix:
 Charge =  0 Multiplicity = 1

 SCF Done:  E(RHF) =  -661.280457096     A.U. after   16 cycles
 E2 =    -0.2037331689D+01 EUMP2 =    -0.66331778878508D+03
 SCF Done:  E(RHF) =  -661.297871780     A.U. after   14 cycles
 E2 =    -0.2032739510D+01 EUMP2 =    -0.66333061128973D+03
 SCF Done:  E(RHF) =  -661.299963656     A.U. after   14 cycles
 E2 =    -0.2033354373D+01 EUMP2 =    -0.66333331802899D+03
 SCF Done:  E(RHF) =  -661.292923150     A.U. after   17 cycles
 E2 =    -0.2035829001D+01 EUMP2 =    -0.66332875215056D+03
 SCF Done:  E(RHF) =  -661.298218222     A.U. after   15 cycles
 E2 =    -0.2035653724D+01 EUMP2 =    -0.66333387194652D+03
 SCF Done:  E(RHF) =  -661.299798310     A.U. after   13 cycles
 E2 =    -0.2034762194D+01 EUMP2 =    -0.66333456050350D+03
 SCF Done:  E(RHF) =  -661.300448637     A.U. after   11 cycles
 E2 =    -0.2034181004D+01 EUMP2 =    -0.66333462964190D+03
 SCF Done:  E(RHF) =  -661.300546579     A.U. after   11 cycles
 E2 =    -0.2034099183D+01 EUMP2 =    -0.66333464576199D+03
 SCF Done:  E(RHF) =  -661.300420086     A.U. after   10 cycles
 E2 =    -0.2034228981D+01 EUMP2 =    -0.66333464906757D+03
 SCF Done:  E(RHF) =  -661.300360197     A.U. after   10 cycles
 E2 =    -0.2034289182D+01 EUMP2 =    -0.66333464937912D+03
 Optimization completed.
    -- Stationary point found.

                          Input orientation:
 ---------------------------------------------------------------------
 Center     Atomic      Atomic             Coordinates (Angstroms)
 Number     Number       Type             X           Y           Z
 ---------------------------------------------------------------------
      1          8           0       -3.507070   -1.390541   -0.370089
      2          7           0       -3.121146   -0.232405   -0.117984
      3          8           0       -3.895302    0.728714    0.056154
      4          6           0       -1.686607   -0.023905   -0.009674
      5          6           0       -1.301433    1.260645    0.275015
      6          7           0       -0.057224    1.750189    0.386098
      7          6           0        1.205637    1.024059    0.359122
      8          1           0        1.853404    1.553129    1.074418
      9          6           0        1.908995    1.034977   -0.996778
     10          6           0        3.307404    0.428409   -0.832721
     11          6           0        3.259535   -0.967602   -0.205926
     12          6           0        2.464649   -0.978066    1.101600
     13          6           0        1.054887   -0.424484    0.865155
     14          1           0        0.478396   -0.403060    1.803611
     15          7           0        0.408370   -1.317974   -0.090932
     16          6           0       -0.838991   -1.138254   -0.386294
     17          1           0       -2.096270    1.987465    0.418696
     18          1           0        0.001687    2.735339    0.615378
     19          1           0        1.314699    0.457361   -1.712798
     20          1           0        1.974905    2.062849   -1.374695
     21          1           0        3.811284    0.390199   -1.805294
     22          1           0        3.907209    1.094846   -0.196600
     23          1           0        2.781823   -1.664515   -0.901635
     24          1           0        4.278739   -1.331036   -0.028818
     25          1           0        2.379273   -1.999949    1.485595
     26          1           0        2.974631   -0.380082    1.869518
     27          1           0       -1.300486   -1.893302   -1.022143
 ---------------------------------------------------------------------

 Alpha  occ. eigenvalues --  -20.59237 -20.58904 -15.84722 -15.64136 -15.56112
 Alpha  occ. eigenvalues --  -11.35017 -11.29623 -11.29560 -11.28628 -11.27134
 Alpha  occ. eigenvalues --  -11.23728 -11.23208 -11.22692 -11.22089  -1.57116
 Alpha  occ. eigenvalues --   -1.36709  -1.30977  -1.23065  -1.14702  -1.09818
 Alpha  occ. eigenvalues --   -1.02805  -1.01307  -0.94481  -0.89685  -0.85565
 Alpha  occ. eigenvalues --   -0.82448  -0.78610  -0.77411  -0.75202  -0.72019
 Alpha  occ. eigenvalues --   -0.69770  -0.69438  -0.67820  -0.64893  -0.63778
 Alpha  occ. eigenvalues --   -0.62367  -0.60281  -0.57700  -0.57001  -0.55077
 Alpha  occ. eigenvalues --   -0.54582  -0.50762  -0.50109  -0.48656  -0.48103
 Alpha  occ. eigenvalues --   -0.47372  -0.46146  -0.46044  -0.43677  -0.41696
 Alpha  occ. eigenvalues --   -0.39848  -0.33829
 Alpha virt. eigenvalues --    0.07465   0.11799   0.17307   0.21848   0.24113
 Alpha virt. eigenvalues --    0.25664   0.27134   0.28694   0.29044   0.29635
 Alpha virt. eigenvalues --    0.30683   0.31797   0.32036   0.32767   0.33950

 Mulliken charges:
               1
     1  O   -0.467230
     2  N    0.491296
     3  O   -0.504053
     4  C    0.000435
     5  C    0.188883
     6  N   -0.780291
     7  C    0.060233
     8  H    0.180079
     9  C   -0.301423
    10  C   -0.327940
    11  C   -0.321490
    12  C   -0.306656
    13  C   -0.037168
    14  H    0.189962
    15  N   -0.511203
    16  C    0.120026
    17  H    0.295323
    18  H    0.404872
    19  H    0.190185
    20  H    0.161388
    21  H    0.174645
    22  H    0.149359
    23  H    0.199936
    24  H    0.164540
    25  H    0.187061
    26  H    0.150348
    27  H    0.248881
 Sum of Mulliken charges =  -0.00000

 Dipole moment (field-independent basis, Debye):
    X=              5.4159    Y=              4.7958    Z=              1.2796  Tot=              7.3464
 Quadrupole moment (field-independent basis, Debye-Ang):
   XX=           -106.1413   YY=            -79.2256   ZZ=            -81.5009
   XY=             -1.7659   XZ=             -0.1264   YZ=              1.8574

 Normal termination of Gaussian 16 at Sat Jul  1 23:43:13 2023.
