 Gaussian 16, Revision C.02,
 Gaussian 16:  ES64L-G16RevC.02  7-Dec-2021

 ---------------------------------------------------------
 #MP2/6-31G* SCF=Tight Opt=(ModRedun, MaxCycle=20 ) NoSymm
 ---------------------------------------------------------

 --------
 MolName:
 --------
 Symbolic Z-matrix:
 Charge =  0 Multiplicity = 1

 SCF Done:  E(RHF) =  -661.276529100     A.U. after   16 cycles
 E2 =    -0.2037752365D+01 EUMP2 =    -0.66331428146502D+03
 SCF Done:  E(RHF) =  -661.294576390     A.U. after   15 cycles
 E2 =    -0.2033301357D+01 EUMP2 =    -0.66332787774693D+03
 SCF Done:  E(RHF) =  -661.294304184     A.U. after   15 cycles
 E2 =    -0.2034232448D+01 EUMP2 =    -0.66332853663124D+03
 SCF Done:  E(RHF) =  -661.291570025     A.U. after   17 cycles
 E2 =    -0.2036224154D+01 EUMP2 =    -0.66332779417943D+03
 SCF Done:  E(RHF) =  -661.296759933     A.U. after   15 cycles
 E2 =    -0.2035945171D+01 EUMP2 =    -0.66333270510403D+03
 SCF Done:  E(RHF) =  -661.298325799     A.U. after   14 cycles
 E2 =    -0.2035314175D+01 EUMP2 =    -0.66333363997402D+03
 SCF Done:  E(RHF) =  -661.299229259     A.U. after   12 cycles
 E2 =    -0.2034553483D+01 EUMP2 =    -0.66333378274182D+03
 SCF Done:  E(RHF) =  -661.299401280     A.U. after   12 cycles
 E2 =    -0.2034422108D+01 EUMP2 =    -0.66333382338745D+03
 SCF Done:  E(RHF) =  -661.299288263     A.U. after   11 cycles
 E2 =    -0.2034542172D+01 EUMP2 =    -0.66333383043498D+03
 SCF Done:  E(RHF) =  -661.299161195     A.U. after   10 cycles
 E2 =    -0.2034670386D+01 EUMP2 =    -0.66333383158171D+03
 Optimization completed.
    -- Stationary point found.

                          Input orientation:
 ---------------------------------------------------------------------
 Center     Atomic      Atomic             Coordinates (Angstroms)
 Number     Number       Type             X           Y           Z
 ---------------------------------------------------------------------
      1          8           0       -3.508671   -1.349701   -0.521177
      2          7           0       -3.120710   -0.216234   -0.178416
      3          8           0       -3.890236    0.746843    0.005231
      4          6           0       -1.691526   -0.038065    0.036873
      5          6           0       -1.303199    1.253493    0.291743
      6          7           0       -0.059122    1.745377    0.393261
      7          6           0        1.207266    1.024740    0.358988
      8          1           0        1.859935    1.564884    1.061291
      9          6           0        1.895766    1.023736   -1.004296
     10          6           0        3.297316    0.421998   -0.849079
     11          6           0        3.259940   -0.967803   -0.207828
     12          6           0        2.479251   -0.967387    1.108285
     13          6           0        1.065738   -0.419204    0.881703
     14          1           0        0.498985   -0.389379    1.825915
     15          7           0        0.411449   -1.319805   -0.060571
     16          6           0       -0.839179   -1.146738   -0.347253
     17          1           0       -2.094205    1.965981    0.508959
     18          1           0       -0.003354    2.725622    0.643866
     19          1           0        1.295457    0.437436   -1.708073
     20          1           0        1.954918    2.047961   -1.392884
     21          1           0        3.790794    0.375216   -1.826588
     22          1           0        3.902301    1.096261   -0.226214
     23          1           0        2.776572   -1.672811   -0.891352
     24          1           0        4.281962   -1.326837   -0.038151
     25          1           0        2.400871   -1.985609    1.503357
     26          1           0        2.996061   -0.360559    1.864649
     27          1           0       -1.301401   -1.907408   -0.975241
 ---------------------------------------------------------------------

 Alpha  occ. eigenvalues --  -20.59252 -20.58890 -15.84747 -15.64219 -15.56054
 Alpha  occ. eigenvalues --  -11.35072 -11.29646 -11.29493 -11.28650 -11.27121
 Alpha  occ. eigenvalues --  -11.23715 -11.23202 -11.22693 -11.22084  -1.57132
 Alpha  occ. eigenvalues --   -1.36716  -1.31020  -1.23044  -1.14697  -1.09797
 Alpha  occ. eigenvalues --   -1.02812  -1.01293  -0.94453  -0.89660  -0.85553
 Alpha  occ. eigenvalues --   -0.82434  -0.78637  -0.77392  -0.75189  -0.72057
 Alpha  occ. eigenvalues --   -0.69712  -0.69496  -0.67848  -0.64829  -0.63799
 Alpha  occ. eigenvalues --   -0.62221  -0.60276  -0.57819  -0.57001  -0.55070
 Alpha  occ. eigenvalues --   -0.54551  -0.50756  -0.50126  -0.48659  -0.48089
 Alpha  occ. eigenvalues --   -0.47348  -0.46194  -0.46001  -0.43692  -0.41695
 Alpha  occ. eigenvalues --   -0.39787  -0.33843
 Alpha virt. eigenvalues --    0.07445   0.11708   0.17252   0.21920   0.24266
 Alpha virt. eigenvalues --    0.25721   0.26967   0.28436   0.29072   0.29547
 Alpha virt. eigenvalues --    0.30701   0.31872   0.31996   0.32782   0.33914

 Mulliken charges:
               1
     1  O   -0.467385
     2  N    0.493422
     3  O   -0.502409
     4  C    0.003238
     5  C    0.189954
     6  N   -0.777109
     7  C    0.058374
     8  H    0.180095
     9  C   -0.301105
    10  C   -0.328120
    11  C   -0.321416
    12  C   -0.306453
    13  C   -0.036340
    14  H    0.189104
    15  N   -0.511973
    16  C    0.110175
    17  H    0.291548
    18  H    0.405269
    19  H    0.190688
    20  H    0.161989
    21  H    0.174764
    22  H    0.149197
    23  H    0.200093
    24  H    0.164479
    25  H    0.186819
    26  H    0.150034
    27  H    0.253066
 Sum of Mulliken charges =  -0.00000

 Dipole moment (field-independent basis, Debye):
    X=              5.4142    Y=              4.7334    Z=              1.5427  Tot=              7.3551
 Quadrupole moment (field-independent basis, Debye-Ang):
   XX=           -106.0975   YY=            -79.1559   ZZ=            -81.6378
   XY=             -1.4371   XZ=             -1.1974   YZ=              1.8605

 Normal termination of Gaussian 16 at Sun Jul  2 00:06:24 2023.
