 Gaussian 16, Revision C.02,
 Gaussian 16:  ES64L-G16RevC.02  7-Dec-2021

 ---------------------------------------------------------
 #MP2/6-31G* SCF=Tight Opt=(ModRedun, MaxCycle=20 ) NoSymm
 ---------------------------------------------------------

 --------
 MolName:
 --------
 Symbolic Z-matrix:
 Charge =  0 Multiplicity = 1

 SCF Done:  E(RHF) =  -661.269718651     A.U. after   16 cycles
 E2 =    -0.2038518371D+01 EUMP2 =    -0.66330823702172D+03
 SCF Done:  E(RHF) =  -661.288397069     A.U. after   15 cycles
 E2 =    -0.2034315390D+01 EUMP2 =    -0.66332271245884D+03
 SCF Done:  E(RHF) =  -661.286669798     A.U. after   17 cycles
 E2 =    -0.2035188905D+01 EUMP2 =    -0.66332185870327D+03
 SCF Done:  E(RHF) =  -661.289595328     A.U. after   16 cycles
 E2 =    -0.2036845492D+01 EUMP2 =    -0.66332644082027D+03
 SCF Done:  E(RHF) =  -661.293425846     A.U. after   15 cycles
 E2 =    -0.2036930557D+01 EUMP2 =    -0.66333035640253D+03
 SCF Done:  E(RHF) =  -661.295261648     A.U. after   14 cycles
 E2 =    -0.2035824768D+01 EUMP2 =    -0.66333108641625D+03
 SCF Done:  E(RHF) =  -661.296044333     A.U. after   13 cycles
 E2 =    -0.2035202998D+01 EUMP2 =    -0.66333124733015D+03
 SCF Done:  E(RHF) =  -661.296025767     A.U. after   12 cycles
 E2 =    -0.2035252493D+01 EUMP2 =    -0.66333127826022D+03
 SCF Done:  E(RHF) =  -661.295868897     A.U. after   11 cycles
 E2 =    -0.2035420495D+01 EUMP2 =    -0.66333128939189D+03
 SCF Done:  E(RHF) =  -661.295819717     A.U. after   10 cycles
 E2 =    -0.2035470316D+01 EUMP2 =    -0.66333129003308D+03
 Optimization completed.
    -- Stationary point found.

                          Input orientation:
 ---------------------------------------------------------------------
 Center     Atomic      Atomic             Coordinates (Angstroms)
 Number     Number       Type             X           Y           Z
 ---------------------------------------------------------------------
      1          8           0       -3.494500   -1.308742   -0.665623
      2          7           0       -3.114787   -0.200701   -0.241756
      3          8           0       -3.882995    0.763255   -0.057231
      4          6           0       -1.698803   -0.049904    0.077383
      5          6           0       -1.307486    1.247649    0.309450
      6          7           0       -0.062366    1.740274    0.400418
      7          6           0        1.207961    1.025701    0.358402
      8          1           0        1.865321    1.577369    1.047064
      9          6           0        1.881187    1.011853   -1.012132
     10          6           0        3.285664    0.414646   -0.865677
     11          6           0        3.258704   -0.968391   -0.209398
     12          6           0        2.492453   -0.956109    1.115171
     13          6           0        1.075441   -0.412982    0.898334
     14          1           0        0.518365   -0.373996    1.847967
     15          7           0        0.413187   -1.320537   -0.029548
     16          6           0       -0.840568   -1.154421   -0.307995
     17          1           0       -2.085162    1.945498    0.607678
     18          1           0       -0.009343    2.713192    0.679271
     19          1           0        1.274714    0.416766   -1.703034
     20          1           0        1.933615    2.032064   -1.411821
     21          1           0        3.768579    0.358577   -1.847940
     22          1           0        3.895897    1.096822   -0.256679
     23          1           0        2.769620   -1.681658   -0.880133
     24          1           0        4.283417   -1.323149   -0.047238
     25          1           0        2.420786   -1.970287    1.521682
     26          1           0        3.016224   -0.340368    1.859503
     27          1           0       -1.302136   -1.921398   -0.928150
 ---------------------------------------------------------------------

 Alpha  occ. eigenvalues --  -20.59262 -20.58843 -15.84754 -15.64336 -15.55993
 Alpha  occ. eigenvalues --  -11.35182 -11.29681 -11.29414 -11.28669 -11.27110
 Alpha  occ. eigenvalues --  -11.23708 -11.23200 -11.22696 -11.22082  -1.57124
 Alpha  occ. eigenvalues --   -1.36706  -1.31074  -1.23018  -1.14689  -1.09767
 Alpha  occ. eigenvalues --   -1.02830  -1.01282  -0.94420  -0.89609  -0.85545
 Alpha  occ. eigenvalues --   -0.82420  -0.78620  -0.77377  -0.75183  -0.72089
 Alpha  occ. eigenvalues --   -0.69639  -0.69527  -0.67870  -0.64774  -0.63825
 Alpha  occ. eigenvalues --   -0.62076  -0.60274  -0.57926  -0.56998  -0.55064
 Alpha  occ. eigenvalues --   -0.54512  -0.50743  -0.50130  -0.48644  -0.48075
 Alpha  occ. eigenvalues --   -0.47313  -0.46230  -0.45963  -0.43687  -0.41698
 Alpha  occ. eigenvalues --   -0.39704  -0.33845
 Alpha virt. eigenvalues --    0.07382   0.11590   0.17148   0.21953   0.24376
 Alpha virt. eigenvalues --    0.25436   0.26775   0.28322   0.29100   0.29512
 Alpha virt. eigenvalues --    0.30592   0.31905   0.31959   0.32771   0.33859

 Mulliken charges:
               1
     1  O   -0.467884
     2  N    0.498353
     3  O   -0.500385
     4  C    0.002916
     5  C    0.192850
     6  N   -0.771862
     7  C    0.056227
     8  H    0.180203
     9  C   -0.300871
    10  C   -0.328328
    11  C   -0.321381
    12  C   -0.306265
    13  C   -0.035582
    14  H    0.188061
    15  N   -0.512416
    16  C    0.100491
    17  H    0.285026
    18  H    0.405528
    19  H    0.191306
    20  H    0.162794
    21  H    0.174951
    22  H    0.149050
    23  H    0.200288
    24  H    0.164447
    25  H    0.186638
    26  H    0.149679
    27  H    0.256165
 Sum of Mulliken charges =  -0.00000

 Dipole moment (field-independent basis, Debye):
    X=              5.4109    Y=              4.6701    Z=              1.8248  Tot=              7.3768
 Quadrupole moment (field-independent basis, Debye-Ang):
   XX=           -105.9394   YY=            -79.1158   ZZ=            -81.8018
   XY=             -1.0631   XZ=             -2.2894   YZ=              1.9705

 Normal termination of Gaussian 16 at Sun Jul  2 00:28:29 2023.
