 Gaussian 16, Revision C.02,
 Gaussian 16:  ES64L-G16RevC.02  7-Dec-2021

 ---------------------------------------------------------
 #MP2/6-31G* SCF=Tight Opt=(ModRedun, MaxCycle=20 ) NoSymm
 ---------------------------------------------------------

 --------
 MolName:
 --------
 Symbolic Z-matrix:
 Charge =  0 Multiplicity = 1

 SCF Done:  E(RHF) =  -661.277165497     A.U. after   16 cycles
 E2 =    -0.2037832683D+01 EUMP2 =    -0.66331499818094D+03
 SCF Done:  E(RHF) =  -661.294021105     A.U. after   15 cycles
 E2 =    -0.2033407169D+01 EUMP2 =    -0.66332742827395D+03
 SCF Done:  E(RHF) =  -661.281475435     A.U. after   18 cycles
 E2 =    -0.2035639411D+01 EUMP2 =    -0.66331711484565D+03
 SCF Done:  E(RHF) =  -661.292451409     A.U. after   15 cycles
 E2 =    -0.2035951739D+01 EUMP2 =    -0.66332840314756D+03
 SCF Done:  E(RHF) =  -661.294114042     A.U. after   14 cycles
 E2 =    -0.2035737746D+01 EUMP2 =    -0.66332985178733D+03
 SCF Done:  E(RHF) =  -661.294573588     A.U. after   12 cycles
 E2 =    -0.2035485485D+01 EUMP2 =    -0.66333005907285D+03
 SCF Done:  E(RHF) =  -661.294812126     A.U. after   12 cycles
 E2 =    -0.2035301749D+01 EUMP2 =    -0.66333011387506D+03
 SCF Done:  E(RHF) =  -661.294732529     A.U. after   11 cycles
 E2 =    -0.2035385335D+01 EUMP2 =    -0.66333011786482D+03
 SCF Done:  E(RHF) =  -661.294702819     A.U. after    9 cycles
 E2 =    -0.2035415567D+01 EUMP2 =    -0.66333011838563D+03
 Optimization completed.
    -- Stationary point found.

                          Input orientation:
 ---------------------------------------------------------------------
 Center     Atomic      Atomic             Coordinates (Angstroms)
 Number     Number       Type             X           Y           Z
 ---------------------------------------------------------------------
      1          8           0       -3.430798   -1.478405   -0.009169
      2          7           0       -3.101008   -0.276425    0.022571
      3          8           0       -3.907599    0.661378    0.173768
      4          6           0       -1.687271    0.015560   -0.125394
      5          6           0       -1.306148    1.282679    0.235240
      6          7           0       -0.057306    1.760568    0.364650
      7          6           0        1.198252    1.022942    0.356449
      8          1           0        1.832791    1.529572    1.099639
      9          6           0        1.936286    1.057405   -0.980984
     10          6           0        3.326235    0.438311   -0.793986
     11          6           0        3.252802   -0.969959   -0.197907
     12          6           0        2.424189   -1.001527    1.088167
     13          6           0        1.024936   -0.432882    0.827272
     14          1           0        0.425064   -0.428536    1.750880
     15          7           0        0.396969   -1.307542   -0.161325
     16          6           0       -0.841180   -1.109673   -0.479083
     17          1           0       -2.077059    2.049260    0.216142
     18          1           0        0.013307    2.756212    0.539093
     19          1           0        1.356603    0.499244   -1.723945
     20          1           0        2.018969    2.092431   -1.335856
     21          1           0        3.854673    0.416741   -1.753959
     22          1           0        3.913588    1.087253   -0.128927
     23          1           0        2.788797   -1.648998   -0.920096
     24          1           0        4.264606   -1.344284   -0.002122
     25          1           0        2.321162   -2.030581    1.447857
     26          1           0        2.918073   -0.423747    1.881565
     27          1           0       -1.297935   -1.853976   -1.132549
 ---------------------------------------------------------------------

 Alpha  occ. eigenvalues --  -20.59230 -20.58831 -15.84636 -15.64099 -15.56213
 Alpha  occ. eigenvalues --  -11.35104 -11.29634 -11.29598 -11.28563 -11.27152
 Alpha  occ. eigenvalues --  -11.23794 -11.23241 -11.22690 -11.22108  -1.57033
 Alpha  occ. eigenvalues --   -1.36667  -1.30931  -1.23093  -1.14691  -1.09813
 Alpha  occ. eigenvalues --   -1.02820  -1.01343  -0.94494  -0.89614  -0.85618
 Alpha  occ. eigenvalues --   -0.82455  -0.78393  -0.77466  -0.75225  -0.71933
 Alpha  occ. eigenvalues --   -0.69840  -0.69265  -0.67746  -0.65042  -0.63726
 Alpha  occ. eigenvalues --   -0.62676  -0.60253  -0.57406  -0.56985  -0.55065
 Alpha  occ. eigenvalues --   -0.54643  -0.50754  -0.49997  -0.48623  -0.48069
 Alpha  occ. eigenvalues --   -0.47423  -0.46157  -0.45984  -0.43583  -0.41687
 Alpha  occ. eigenvalues --   -0.39912  -0.33778
 Alpha virt. eigenvalues --    0.07483   0.11899   0.17253   0.21393   0.23500
 Alpha virt. eigenvalues --    0.25147   0.27100   0.28986   0.28992   0.29702
 Alpha virt. eigenvalues --    0.30351   0.31598   0.32125   0.32689   0.33907

 Mulliken charges:
               1
     1  O   -0.468423
     2  N    0.502268
     3  O   -0.501810
     4  C   -0.010927
     5  C    0.191928
     6  N   -0.775139
     7  C    0.061798
     8  H    0.180408
     9  C   -0.302625
    10  C   -0.327573
    11  C   -0.321684
    12  C   -0.306970
    13  C   -0.040003
    14  H    0.191892
    15  N   -0.506349
    16  C    0.128393
    17  H    0.286353
    18  H    0.404108
    19  H    0.189729
    20  H    0.159993
    21  H    0.174549
    22  H    0.149801
    23  H    0.199708
    24  H    0.164734
    25  H    0.187822
    26  H    0.150964
    27  H    0.237058
 Sum of Mulliken charges =  -0.00000

 Dipole moment (field-independent basis, Debye):
    X=              5.3999    Y=              4.9623    Z=              0.6537  Tot=              7.3628
 Quadrupole moment (field-independent basis, Debye-Ang):
   XX=           -105.7386   YY=            -79.2649   ZZ=            -81.5117
   XY=             -2.3425   XZ=              2.3998   YZ=              1.9556

 Normal termination of Gaussian 16 at Fri Jun 30 23:50:44 2023.
