 Gaussian 09, Revision A.01,
 Gaussian 09:  EM64L-G09RevA.01  8-May-2009

 ------------------------------
 #HF/6-31G* Opt=Z-matrix NoSymm
 ------------------------------

 ------------------------------
 water interaction with atom F7
 ------------------------------
 Symbolic Z-matrix:
 Charge =  0 Multiplicity = 1

 SCF Done:  E(RHF) =  -1154.67458471     A.U. after   15 cycles
 SCF Done:  E(RHF) =  -1154.67458541     A.U. after    5 cycles
 SCF Done:  E(RHF) =  -1154.67458663     A.U. after    6 cycles
 SCF Done:  E(RHF) =  -1154.67458830     A.U. after    6 cycles
 SCF Done:  E(RHF) =  -1154.67458890     A.U. after    6 cycles
 Optimization completed.
    -- Stationary point found.

                         Z-Matrix orientation:
 ---------------------------------------------------------------------
 Center     Atomic      Atomic             Coordinates (Angstroms)
 Number     Number       Type             X           Y           Z
 ---------------------------------------------------------------------
      1          9           0       -1.969300    2.053680    0.000070
      2          6           0       -1.222250    0.944230    0.000030
      3          6           0        0.140030    1.057400   -0.000020
      4          6           0        0.927950   -0.123640   -0.000080
      5          6           0        2.414660   -0.018650   -0.000010
      6          9           0        3.007080   -1.234610   -0.000560
      7          9           0        2.858290    0.654480   -1.086020
      8          9           0        2.858270    0.653500    1.086650
      9          6           0        0.306540   -1.341490   -0.000090
     10          7           0       -1.054170   -1.389970   -0.000060
     11          6           0       -1.930500   -0.312100    0.000000
     12         16           0       -3.570980   -0.506610    0.000030
     13          1           0        0.596860    2.043100   -0.000020
     14          1           0        0.831760   -2.288990   -0.000150
     15          1           0       -1.521480   -2.296390   -0.000090
     16         -1           0        1.915565    0.772301   -1.398091
     17         -1           0        1.587564    0.274618   -0.595142
     18          1           0        3.623786    1.815985   -2.959961
     19         -1           0        2.681061    1.933806   -3.272032
     20          8           0        3.937748    2.292367   -3.728543
     21          1           0        4.890019    2.302629   -3.632068
 ---------------------------------------------------------------------

 Alpha  occ. eigenvalues --  -91.90606 -26.37528 -26.37362 -26.36577 -26.33522
 Alpha  occ. eigenvalues --  -20.55672 -15.68888 -11.55003 -11.37969 -11.37333
 Alpha  occ. eigenvalues --  -11.36416 -11.31390 -11.30624  -8.91693  -6.60021
 Alpha  occ. eigenvalues --   -6.59745  -6.59618  -1.75008  -1.66014  -1.65354
 Alpha  occ. eigenvalues --   -1.64769  -1.35724  -1.33869  -1.17421  -1.12237
 Alpha  occ. eigenvalues --   -1.03442  -0.97596  -0.92968  -0.88494  -0.85329
 Alpha  occ. eigenvalues --   -0.84570  -0.84286  -0.77316  -0.76172  -0.74100
 Alpha  occ. eigenvalues --   -0.73226  -0.72363  -0.71398  -0.70486  -0.70393
 Alpha  occ. eigenvalues --   -0.68497  -0.68262  -0.67049  -0.64310  -0.62699
 Alpha  occ. eigenvalues --   -0.61061  -0.59721  -0.56793  -0.52712  -0.49488
 Alpha  occ. eigenvalues --   -0.46811  -0.43409  -0.34227  -0.31129
 Alpha virt. eigenvalues --    0.04330   0.08474   0.17503   0.21633   0.24366
 Alpha virt. eigenvalues --    0.25014   0.26273   0.26336   0.29265   0.31444
 Alpha virt. eigenvalues --    0.33731   0.35201   0.39018   0.40910   0.42307

 Mulliken atomic charges:
              1
     1  F   -0.359086
     2  C    0.407656
     3  C   -0.173944
     4  C   -0.303145
     5  C    1.209499
     6  F   -0.381754
     7  F   -0.380572
     8  F   -0.371042
     9  C    0.175246
    10  N   -0.779641
    11  C    0.181162
    12  S   -0.226235
    13  H    0.280902
    14  H    0.288190
    15  H    0.442212
    16  H    0.438355
    17  O   -0.879410
    18  H    0.431606
 Sum of Mulliken atomic charges =   0.00000

 Dipole moment (field-independent basis, Debye):
    X=              4.4578    Y=             -3.6444    Z=              1.8195  Tot=              6.0386
 Quadrupole moment (field-independent basis, Debye-Ang):
   XX=            -94.1918   YY=            -75.4522   ZZ=            -93.6690
   XY=              1.3020   XZ=              2.2089   YZ=              6.4324

 Normal termination of Gaussian 09 at Fri Sep 24 08:09:43 2021.
