 Gaussian 09, Revision A.01,
 Gaussian 09:  EM64L-G09RevA.01  8-May-2009

 ------------------------------
 #HF/6-31G* Opt=Z-matrix NoSymm
 ------------------------------

 ------------------------------
 water interaction with atom F7
 ------------------------------
 Symbolic Z-matrix:
 Charge =  0 Multiplicity = 1

 SCF Done:  E(RHF) =  -1154.67432904     A.U. after   15 cycles
 SCF Done:  E(RHF) =  -1154.67432925     A.U. after    5 cycles
 SCF Done:  E(RHF) =  -1154.67432962     A.U. after    5 cycles
 SCF Done:  E(RHF) =  -1154.67433012     A.U. after    6 cycles
 SCF Done:  E(RHF) =  -1154.67433029     A.U. after    6 cycles
 Optimization completed.
    -- Stationary point found.

                         Z-Matrix orientation:
 ---------------------------------------------------------------------
 Center     Atomic      Atomic             Coordinates (Angstroms)
 Number     Number       Type             X           Y           Z
 ---------------------------------------------------------------------
      1          9           0       -1.969300    2.053680    0.000070
      2          6           0       -1.222250    0.944230    0.000030
      3          6           0        0.140030    1.057400   -0.000020
      4          6           0        0.927950   -0.123640   -0.000080
      5          6           0        2.414660   -0.018650   -0.000010
      6          9           0        3.007080   -1.234610   -0.000560
      7          9           0        2.858290    0.654480   -1.086020
      8          9           0        2.858270    0.653500    1.086650
      9          6           0        0.306540   -1.341490   -0.000090
     10          7           0       -1.054170   -1.389970   -0.000060
     11          6           0       -1.930500   -0.312100    0.000000
     12         16           0       -3.570980   -0.506610    0.000030
     13          1           0        0.596860    2.043100   -0.000020
     14          1           0        0.831760   -2.288990   -0.000150
     15          1           0       -1.521480   -2.296390   -0.000090
     16         -1           0        1.915565    0.772301   -1.398091
     17         -1           0        1.587564    0.274618   -0.595142
     18          1           0        3.629516    1.824679   -2.973988
     19         -1           0        2.686791    1.942500   -3.286059
     20          8           0        3.943478    2.301061   -3.742570
     21          1           0        4.078448    1.624230   -4.405831
 ---------------------------------------------------------------------

 Alpha  occ. eigenvalues --  -91.90710 -26.37549 -26.37351 -26.36499 -26.33612
 Alpha  occ. eigenvalues --  -20.55704 -15.68997 -11.55007 -11.38073 -11.37430
 Alpha  occ. eigenvalues --  -11.36514 -11.31472 -11.30717  -8.91797  -6.60124
 Alpha  occ. eigenvalues --   -6.59849  -6.59722  -1.74985  -1.66019  -1.65295
 Alpha  occ. eigenvalues --   -1.64858  -1.35833  -1.33899  -1.17506  -1.12338
 Alpha  occ. eigenvalues --   -1.03495  -0.97660  -0.93033  -0.88581  -0.85377
 Alpha  occ. eigenvalues --   -0.84570  -0.84251  -0.77390  -0.76242  -0.74175
 Alpha  occ. eigenvalues --   -0.73196  -0.72366  -0.71487  -0.70548  -0.70421
 Alpha  occ. eigenvalues --   -0.68506  -0.68239  -0.67014  -0.64367  -0.62809
 Alpha  occ. eigenvalues --   -0.61134  -0.59782  -0.56818  -0.52811  -0.49512
 Alpha  occ. eigenvalues --   -0.46908  -0.43516  -0.34330  -0.31234
 Alpha virt. eigenvalues --    0.04225   0.08371   0.17395   0.21552   0.24331
 Alpha virt. eigenvalues --    0.24906   0.26180   0.26238   0.29213   0.31353
 Alpha virt. eigenvalues --    0.33661   0.35103   0.38985   0.40869   0.42223

 Mulliken atomic charges:
              1
     1  F   -0.358897
     2  C    0.407565
     3  C   -0.174785
     4  C   -0.304167
     5  C    1.210533
     6  F   -0.382050
     7  F   -0.380667
     8  F   -0.369837
     9  C    0.173845
    10  N   -0.779523
    11  C    0.180651
    12  S   -0.226174
    13  H    0.282645
    14  H    0.287931
    15  H    0.442103
    16  H    0.438055
    17  O   -0.878060
    18  H    0.430832
 Sum of Mulliken atomic charges =   0.00000

 Dipole moment (field-independent basis, Debye):
    X=              2.9432    Y=             -4.9046    Z=              0.4173  Tot=              5.7351
 Quadrupole moment (field-independent basis, Debye-Ang):
   XX=           -108.6452   YY=            -80.2738   ZZ=            -81.7458
   XY=             -7.6290   XZ=              1.8828   YZ=              9.1936

 Normal termination of Gaussian 09 at Fri Sep 24 08:10:33 2021.
