 Gaussian 09, Revision A.01,
 Gaussian 09:  EM64L-G09RevA.01  8-May-2009

 ------------------------------
 #HF/6-31G* Opt=Z-matrix NoSymm
 ------------------------------

 ------------------------------
 water interaction with atom F7
 ------------------------------
 Symbolic Z-matrix:
 Charge =  0 Multiplicity = 1

 SCF Done:  E(RHF) =  -1154.67427783     A.U. after   15 cycles
 SCF Done:  E(RHF) =  -1154.67427793     A.U. after    4 cycles
 SCF Done:  E(RHF) =  -1154.67427811     A.U. after    5 cycles
 SCF Done:  E(RHF) =  -1154.67427836     A.U. after    5 cycles
 SCF Done:  E(RHF) =  -1154.67427847     A.U. after    6 cycles
 Optimization completed.
    -- Stationary point found.

                         Z-Matrix orientation:
 ---------------------------------------------------------------------
 Center     Atomic      Atomic             Coordinates (Angstroms)
 Number     Number       Type             X           Y           Z
 ---------------------------------------------------------------------
      1          9           0       -1.969300    2.053680    0.000070
      2          6           0       -1.222250    0.944230    0.000030
      3          6           0        0.140030    1.057400   -0.000020
      4          6           0        0.927950   -0.123640   -0.000080
      5          6           0        2.414660   -0.018650   -0.000010
      6          9           0        3.007080   -1.234610   -0.000560
      7          9           0        2.858290    0.654480   -1.086020
      8          9           0        2.858270    0.653500    1.086650
      9          6           0        0.306540   -1.341490   -0.000090
     10          7           0       -1.054170   -1.389970   -0.000060
     11          6           0       -1.930500   -0.312100    0.000000
     12         16           0       -3.570980   -0.506610    0.000030
     13          1           0        0.596860    2.043100   -0.000020
     14          1           0        0.831760   -2.288990   -0.000150
     15          1           0       -1.521480   -2.296390   -0.000090
     16         -1           0        1.915565    0.772301   -1.398091
     17         -1           0        1.587564    0.274618   -0.595142
     18          1           0        3.634312    1.831957   -2.985729
     19         -1           0        2.691588    1.949778   -3.297800
     20          8           0        3.948275    2.308339   -3.754312
     21          1           0        3.970737    3.224045   -3.476446
 ---------------------------------------------------------------------

 Alpha  occ. eigenvalues --  -91.90732 -26.37445 -26.37326 -26.36590 -26.33726
 Alpha  occ. eigenvalues --  -20.55712 -15.68994 -11.54997 -11.38098 -11.37504
 Alpha  occ. eigenvalues --  -11.36503 -11.31578 -11.30713  -8.91819  -6.60146
 Alpha  occ. eigenvalues --   -6.59871  -6.59744  -1.74967  -1.65948  -1.65346
 Alpha  occ. eigenvalues --   -1.64976  -1.35831  -1.33905  -1.17533  -1.12368
 Alpha  occ. eigenvalues --   -1.03511  -0.97670  -0.93063  -0.88604  -0.85391
 Alpha  occ. eigenvalues --   -0.84533  -0.84269  -0.77416  -0.76277  -0.74208
 Alpha  occ. eigenvalues --   -0.73183  -0.72362  -0.71598  -0.70620  -0.70430
 Alpha  occ. eigenvalues --   -0.68483  -0.68237  -0.67021  -0.64442  -0.62807
 Alpha  occ. eigenvalues --   -0.61169  -0.59822  -0.56824  -0.52841  -0.49517
 Alpha  occ. eigenvalues --   -0.46944  -0.43547  -0.34352  -0.31252
 Alpha virt. eigenvalues --    0.04183   0.08374   0.17414   0.21483   0.24102
 Alpha virt. eigenvalues --    0.24955   0.26140   0.26241   0.29178   0.31267
 Alpha virt. eigenvalues --    0.33592   0.35073   0.38948   0.40841   0.42215

 Mulliken atomic charges:
              1
     1  F   -0.359623
     2  C    0.407658
     3  C   -0.174555
     4  C   -0.302831
     5  C    1.210250
     6  F   -0.380631
     7  F   -0.380455
     8  F   -0.371404
     9  C    0.175971
    10  N   -0.779621
    11  C    0.181094
    12  S   -0.225474
    13  H    0.276340
    14  H    0.289570
    15  H    0.442660
    16  H    0.437815
    17  O   -0.877485
    18  H    0.430721
 Sum of Mulliken atomic charges =   0.00000

 Dipole moment (field-independent basis, Debye):
    X=              2.7212    Y=             -2.0107    Z=              2.1579  Tot=              4.0131
 Quadrupole moment (field-independent basis, Debye-Ang):
   XX=           -110.3166   YY=            -65.3412   ZZ=            -96.1396
   XY=              4.0024   XZ=              9.9305   YZ=              1.4697

 Normal termination of Gaussian 09 at Fri Sep 24 08:08:51 2021.
