 Gaussian 16, Revision C.02,
 Gaussian 16:  ES64L-G16RevC.02  7-Dec-2021

 ---------------------------------------------------------
 #MP2/6-31G* SCF=Tight Opt=(ModRedun, MaxCycle=20 ) NoSymm
 ---------------------------------------------------------

 --------
 MolName:
 --------
 Symbolic Z-matrix:
 Charge =  0 Multiplicity = 1

 SCF Done:  E(RHF) =  -661.270795123     A.U. after   16 cycles
 E2 =    -0.2038191136D+01 EUMP2 =    -0.66330898625957D+03
 SCF Done:  E(RHF) =  -661.288880322     A.U. after   15 cycles
 E2 =    -0.2033657853D+01 EUMP2 =    -0.66332253817468D+03
 SCF Done:  E(RHF) =  -661.290802303     A.U. after   15 cycles
 E2 =    -0.2034322236D+01 EUMP2 =    -0.66332512453886D+03
 SCF Done:  E(RHF) =  -661.287753686     A.U. after   17 cycles
 E2 =    -0.2036106873D+01 EUMP2 =    -0.66332386055910D+03
 SCF Done:  E(RHF) =  -661.293964975     A.U. after   15 cycles
 E2 =    -0.2035690794D+01 EUMP2 =    -0.66332965576883D+03
 SCF Done:  E(RHF) =  -661.295349705     A.U. after   14 cycles
 E2 =    -0.2035067631D+01 EUMP2 =    -0.66333041733569D+03
 SCF Done:  E(RHF) =  -661.296328025     A.U. after   12 cycles
 E2 =    -0.2034476354D+01 EUMP2 =    -0.66333080437863D+03
 SCF Done:  E(RHF) =  -661.296831108     A.U. after   13 cycles
 E2 =    -0.2034391461D+01 EUMP2 =    -0.66333122256970D+03
 SCF Done:  E(RHF) =  -661.296812410     A.U. after   14 cycles
 E2 =    -0.2034697286D+01 EUMP2 =    -0.66333150969591D+03
 SCF Done:  E(RHF) =  -661.296526264     A.U. after   13 cycles
 E2 =    -0.2035075750D+01 EUMP2 =    -0.66333160201384D+03
 SCF Done:  E(RHF) =  -661.296337333     A.U. after   11 cycles
 E2 =    -0.2035279141D+01 EUMP2 =    -0.66333161647437D+03
 SCF Done:  E(RHF) =  -661.296320840     A.U. after   10 cycles
 E2 =    -0.2035300244D+01 EUMP2 =    -0.66333162108392D+03
 SCF Done:  E(RHF) =  -661.296304086     A.U. after   10 cycles
 E2 =    -0.2035317986D+01 EUMP2 =    -0.66333162207196D+03
 Optimization completed.
    -- Stationary point found.

                          Input orientation:
 ---------------------------------------------------------------------
 Center     Atomic      Atomic             Coordinates (Angstroms)
 Number     Number       Type             X           Y           Z
 ---------------------------------------------------------------------
      1          8           0       -3.483892   -1.399736   -0.293581
      2          7           0       -3.098699   -0.234903   -0.073635
      3          8           0       -3.872517    0.721576    0.118727
      4          6           0       -1.656070   -0.021965   -0.033171
      5          6           0       -1.268208    1.253338    0.271091
      6          7           0       -0.047499    1.830753    0.294743
      7          6           0        1.183710    1.025422    0.327955
      8          1           0        1.834608    1.535493    1.055014
      9          6           0        1.923349    1.027866   -1.011257
     10          6           0        3.318308    0.423366   -0.818157
     11          6           0        3.255675   -0.969511   -0.188067
     12          6           0        2.433311   -0.967180    1.101639
     13          6           0        1.025280   -0.423082    0.829052
     14          1           0        0.428660   -0.404064    1.756220
     15          7           0        0.404202   -1.329931   -0.128628
     16          6           0       -0.836839   -1.144777   -0.434980
     17          1           0       -2.088049    1.943799    0.459623
     18          1           0       -0.004965    2.761356    0.691932
     19          1           0        1.345719    0.449643   -1.740851
     20          1           0        1.996086    2.054637   -1.389510
     21          1           0        3.842365    0.381960   -1.779999
     22          1           0        3.904604    1.091735   -0.171602
     23          1           0        2.790586   -1.669229   -0.889396
     24          1           0        4.269546   -1.335165    0.013715
     25          1           0        2.339464   -1.984889    1.494725
     26          1           0        2.925100   -0.360636    1.874436
     27          1           0       -1.304812   -1.889898   -1.077027
 ---------------------------------------------------------------------

 Alpha  occ. eigenvalues --  -20.59517 -20.59236 -15.84956 -15.63985 -15.56312
 Alpha  occ. eigenvalues --  -11.34737 -11.29580 -11.29466 -11.28985 -11.27291
 Alpha  occ. eigenvalues --  -11.23444 -11.23038 -11.22790 -11.22050  -1.57405
 Alpha  occ. eigenvalues --   -1.37017  -1.30502  -1.23464  -1.14610  -1.09891
 Alpha  occ. eigenvalues --   -1.02569  -1.01146  -0.94441  -0.89738  -0.85261
 Alpha  occ. eigenvalues --   -0.82519  -0.78518  -0.77517  -0.75115  -0.72342
 Alpha  occ. eigenvalues --   -0.70038  -0.69578  -0.67653  -0.64898  -0.63816
 Alpha  occ. eigenvalues --   -0.61730  -0.60273  -0.57336  -0.57055  -0.55201
 Alpha  occ. eigenvalues --   -0.54447  -0.50663  -0.49972  -0.48812  -0.48188
 Alpha  occ. eigenvalues --   -0.47510  -0.46115  -0.45941  -0.43874  -0.41679
 Alpha  occ. eigenvalues --   -0.40174  -0.34318
 Alpha virt. eigenvalues --    0.07240   0.11746   0.17232   0.21816   0.24185
 Alpha virt. eigenvalues --    0.25681   0.27023   0.28741   0.29088   0.29751
 Alpha virt. eigenvalues --    0.30903   0.31819   0.32067   0.32687   0.34142

 Mulliken charges:
               1
     1  O   -0.464085
     2  N    0.492470
     3  O   -0.500400
     4  C    0.014047
     5  C    0.164712
     6  N   -0.762335
     7  C    0.042879
     8  H    0.176199
     9  C   -0.297826
    10  C   -0.326716
    11  C   -0.321048
    12  C   -0.307419
    13  C   -0.042216
    14  H    0.187374
    15  N   -0.500946
    16  C    0.122164
    17  H    0.290107
    18  H    0.406443
    19  H    0.187989
    20  H    0.164691
    21  H    0.173500
    22  H    0.148684
    23  H    0.199827
    24  H    0.164266
    25  H    0.187714
    26  H    0.151260
    27  H    0.248666
 Sum of Mulliken charges =  -0.00000

 Dipole moment (field-independent basis, Debye):
    X=              5.2037    Y=              4.5295    Z=              1.4535  Tot=              7.0503
 Quadrupole moment (field-independent basis, Debye-Ang):
   XX=           -105.5847   YY=            -79.9227   ZZ=            -81.0944
   XY=             -1.6719   XZ=              0.5090   YZ=              2.8065

 Normal termination of Gaussian 16 at Sat Jul  1 21:24:56 2023.
