 Gaussian 16, Revision C.02,
 Gaussian 16:  ES64L-G16RevC.02  7-Dec-2021

 ---------------------------------------------------------
 #MP2/6-31G* SCF=Tight Opt=(ModRedun, MaxCycle=20 ) NoSymm
 ---------------------------------------------------------

 --------
 MolName:
 --------
 Symbolic Z-matrix:
 Charge =  0 Multiplicity = 1

 SCF Done:  E(RHF) =  -661.277133082     A.U. after   16 cycles
 E2 =    -0.2037571663D+01 EUMP2 =    -0.66331470474518D+03
 SCF Done:  E(RHF) =  -661.294793350     A.U. after   15 cycles
 E2 =    -0.2032985042D+01 EUMP2 =    -0.66332777839193D+03
 SCF Done:  E(RHF) =  -661.296143701     A.U. after   15 cycles
 E2 =    -0.2033702055D+01 EUMP2 =    -0.66332984575582D+03
 SCF Done:  E(RHF) =  -661.290431222     A.U. after   17 cycles
 E2 =    -0.2035981837D+01 EUMP2 =    -0.66332641305900D+03
 SCF Done:  E(RHF) =  -661.297763321     A.U. after   14 cycles
 E2 =    -0.2035230009D+01 EUMP2 =    -0.66333299332958D+03
 SCF Done:  E(RHF) =  -661.298756779     A.U. after   14 cycles
 E2 =    -0.2034702043D+01 EUMP2 =    -0.66333345882257D+03
 SCF Done:  E(RHF) =  -661.299563113     A.U. after   12 cycles
 E2 =    -0.2034124302D+01 EUMP2 =    -0.66333368741470D+03
 SCF Done:  E(RHF) =  -661.299649059     A.U. after   12 cycles
 E2 =    -0.2034155747D+01 EUMP2 =    -0.66333380480571D+03
 SCF Done:  E(RHF) =  -661.299483048     A.U. after   12 cycles
 E2 =    -0.2034355741D+01 EUMP2 =    -0.66333383878921D+03
 SCF Done:  E(RHF) =  -661.299292724     A.U. after   11 cycles
 E2 =    -0.2034552172D+01 EUMP2 =    -0.66333384489598D+03
 SCF Done:  E(RHF) =  -661.299284196     A.U. after   10 cycles
 E2 =    -0.2034561151D+01 EUMP2 =    -0.66333384534668D+03
 Optimization completed.
    -- Stationary point found.

                          Input orientation:
 ---------------------------------------------------------------------
 Center     Atomic      Atomic             Coordinates (Angstroms)
 Number     Number       Type             X           Y           Z
 ---------------------------------------------------------------------
      1          8           0       -3.497763   -1.391744   -0.339567
      2          7           0       -3.109555   -0.231439   -0.101363
      3          8           0       -3.882142    0.729372    0.078160
      4          6           0       -1.670423   -0.025183   -0.019128
      5          6           0       -1.283360    1.256124    0.270585
      6          7           0       -0.051689    1.789764    0.350024
      7          6           0        1.194832    1.023623    0.349270
      8          1           0        1.846192    1.541064    1.070322
      9          6           0        1.913688    1.032884   -1.000126
     10          6           0        3.311058    0.427585   -0.825936
     11          6           0        3.257408   -0.967958   -0.199887
     12          6           0        2.451600   -0.974114    1.100529
     13          6           0        1.041522   -0.426088    0.849624
     14          1           0        0.457217   -0.407689    1.783944
     15          7           0        0.406287   -1.326337   -0.105967
     16          6           0       -0.838705   -1.145819   -0.404067
     17          1           0       -2.092612    1.965526    0.427106
     18          1           0       -0.001182    2.756819    0.645567
     19          1           0        1.326016    0.455870   -1.722400
     20          1           0        1.981901    2.060788   -1.376944
     21          1           0        3.822805    0.389694   -1.794467
     22          1           0        3.905388    1.093983   -0.184693
     23          1           0        2.784390   -1.665088   -0.898541
     24          1           0        4.274457   -1.332788   -0.013360
     25          1           0        2.363203   -1.994481    1.487825
     26          1           0        2.953791   -0.372645    1.870723
     27          1           0       -1.304315   -1.897713   -1.040235
 ---------------------------------------------------------------------

 Alpha  occ. eigenvalues --  -20.59336 -20.59030 -15.84810 -15.64122 -15.56151
 Alpha  occ. eigenvalues --  -11.34881 -11.29549 -11.29537 -11.28759 -11.27204
 Alpha  occ. eigenvalues --  -11.23602 -11.23127 -11.22733 -11.22066  -1.57224
 Alpha  occ. eigenvalues --   -1.36822  -1.30777  -1.23251  -1.14648  -1.09850
 Alpha  occ. eigenvalues --   -1.02687  -1.01233  -0.94467  -0.89708  -0.85428
 Alpha  occ. eigenvalues --   -0.82483  -0.78598  -0.77464  -0.75181  -0.72256
 Alpha  occ. eigenvalues --   -0.69867  -0.69488  -0.67727  -0.64868  -0.63814
 Alpha  occ. eigenvalues --   -0.62062  -0.60273  -0.57507  -0.57039  -0.55154
 Alpha  occ. eigenvalues --   -0.54533  -0.50711  -0.50037  -0.48709  -0.48139
 Alpha  occ. eigenvalues --   -0.47422  -0.46128  -0.45995  -0.43753  -0.41675
 Alpha  occ. eigenvalues --   -0.39979  -0.34002
 Alpha virt. eigenvalues --    0.07425   0.11795   0.17262   0.21839   0.24175
 Alpha virt. eigenvalues --    0.25696   0.27093   0.28769   0.29054   0.29667
 Alpha virt. eigenvalues --    0.30810   0.31806   0.32065   0.32741   0.34041

 Mulliken charges:
               1
     1  O   -0.465930
     2  N    0.492146
     3  O   -0.502964
     4  C    0.004926
     5  C    0.180855
     6  N   -0.776340
     7  C    0.054383
     8  H    0.178151
     9  C   -0.299919
    10  C   -0.327211
    11  C   -0.321328
    12  C   -0.307124
    13  C   -0.039457
    14  H    0.188890
    15  N   -0.507400
    16  C    0.121439
    17  H    0.292898
    18  H    0.407580
    19  H    0.189104
    20  H    0.162486
    21  H    0.174049
    22  H    0.149036
    23  H    0.199971
    24  H    0.164399
    25  H    0.187487
    26  H    0.150801
    27  H    0.249071
 Sum of Mulliken charges =  -0.00000

 Dipole moment (field-independent basis, Debye):
    X=              5.3307    Y=              4.7042    Z=              1.3534  Tot=              7.2372
 Quadrupole moment (field-independent basis, Debye-Ang):
   XX=           -105.9429   YY=            -79.3969   ZZ=            -81.3478
   XY=             -1.6896   XZ=              0.1373   YZ=              2.2404

 Normal termination of Gaussian 16 at Sat Jul  1 20:56:21 2023.
