 Gaussian 16, Revision C.02,
 Gaussian 16:  ES64L-G16RevC.02  7-Dec-2021

 ---------------------------------------------------------
 #MP2/6-31G* SCF=Tight Opt=(ModRedun, MaxCycle=20 ) NoSymm
 ---------------------------------------------------------

 --------
 MolName:
 --------
 Symbolic Z-matrix:
 Charge =  0 Multiplicity = 1

 SCF Done:  E(RHF) =  -661.280670763     A.U. after   16 cycles
 E2 =    -0.2037288768D+01 EUMP2 =    -0.66331795953103D+03
 SCF Done:  E(RHF) =  -661.297901341     A.U. after   15 cycles
 E2 =    -0.2032704709D+01 EUMP2 =    -0.66333060604990D+03
 SCF Done:  E(RHF) =  -661.298682328     A.U. after   15 cycles
 E2 =    -0.2033501769D+01 EUMP2 =    -0.66333218409694D+03
 SCF Done:  E(RHF) =  -661.289991922     A.U. after   17 cycles
 E2 =    -0.2036375730D+01 EUMP2 =    -0.66332636765170D+03
 SCF Done:  E(RHF) =  -661.299219547     A.U. after   14 cycles
 E2 =    -0.2035048988D+01 EUMP2 =    -0.66333426853470D+03
 SCF Done:  E(RHF) =  -661.299942889     A.U. after   13 cycles
 E2 =    -0.2034601107D+01 EUMP2 =    -0.66333454399599D+03
 SCF Done:  E(RHF) =  -661.300520737     A.U. after   12 cycles
 E2 =    -0.2034108859D+01 EUMP2 =    -0.66333462959646D+03
 SCF Done:  E(RHF) =  -661.300512158     A.U. after   11 cycles
 E2 =    -0.2034134327D+01 EUMP2 =    -0.66333464648471D+03
 SCF Done:  E(RHF) =  -661.300416888     A.U. after   10 cycles
 E2 =    -0.2034232269D+01 EUMP2 =    -0.66333464915672D+03
 SCF Done:  E(RHF) =  -661.300357788     A.U. after    9 cycles
 E2 =    -0.2034291619D+01 EUMP2 =    -0.66333464940743D+03
 Optimization completed.
    -- Stationary point found.

                          Input orientation:
 ---------------------------------------------------------------------
 Center     Atomic      Atomic             Coordinates (Angstroms)
 Number     Number       Type             X           Y           Z
 ---------------------------------------------------------------------
      1          8           0       -3.506727   -1.390407   -0.371171
      2          7           0       -3.121083   -0.232277   -0.118576
      3          8           0       -3.895432    0.728669    0.055675
      4          6           0       -1.686611   -0.023769   -0.009787
      5          6           0       -1.301405    1.260702    0.275236
      6          7           0       -0.057168    1.750206    0.386342
      7          6           0        1.205640    1.024007    0.359359
      8          1           0        1.853358    1.552901    1.074827
      9          6           0        1.909157    1.035141   -0.996459
     10          6           0        3.307518    0.428461   -0.832412
     11          6           0        3.259481   -0.967670   -0.205889
     12          6           0        2.464482   -0.978332    1.101566
     13          6           0        1.054758   -0.424600    0.865119
     14          1           0        0.478206   -0.403333    1.803534
     15          7           0        0.408267   -1.317938   -0.091154
     16          6           0       -0.839079   -1.138104   -0.386557
     17          1           0       -2.096215    1.987566    0.418802
     18          1           0        0.001726    2.735393    0.615463
     19          1           0        1.314891    0.457702   -1.712647
     20          1           0        1.975136    2.063085   -1.374163
     21          1           0        3.811482    0.390391   -1.804945
     22          1           0        3.907318    1.094733   -0.196117
     23          1           0        2.781773   -1.664402   -0.901778
     24          1           0        4.278634   -1.331238   -0.028759
     25          1           0        2.379003   -2.000282    1.485355
     26          1           0        2.974441   -0.380531    1.869641
     27          1           0       -1.300563   -1.893083   -1.022505
 ---------------------------------------------------------------------

 Alpha  occ. eigenvalues --  -20.59236 -20.58904 -15.84722 -15.64136 -15.56111
 Alpha  occ. eigenvalues --  -11.35018 -11.29622 -11.29559 -11.28628 -11.27134
 Alpha  occ. eigenvalues --  -11.23729 -11.23208 -11.22692 -11.22089  -1.57116
 Alpha  occ. eigenvalues --   -1.36709  -1.30977  -1.23064  -1.14703  -1.09818
 Alpha  occ. eigenvalues --   -1.02805  -1.01307  -0.94481  -0.89684  -0.85566
 Alpha  occ. eigenvalues --   -0.82448  -0.78609  -0.77411  -0.75202  -0.72020
 Alpha  occ. eigenvalues --   -0.69771  -0.69438  -0.67820  -0.64892  -0.63777
 Alpha  occ. eigenvalues --   -0.62368  -0.60282  -0.57700  -0.57001  -0.55077
 Alpha  occ. eigenvalues --   -0.54582  -0.50761  -0.50108  -0.48656  -0.48102
 Alpha  occ. eigenvalues --   -0.47372  -0.46146  -0.46044  -0.43678  -0.41696
 Alpha  occ. eigenvalues --   -0.39847  -0.33829
 Alpha virt. eigenvalues --    0.07465   0.11799   0.17307   0.21848   0.24113
 Alpha virt. eigenvalues --    0.25665   0.27134   0.28694   0.29044   0.29635
 Alpha virt. eigenvalues --    0.30683   0.31797   0.32036   0.32767   0.33950

 Mulliken charges:
               1
     1  O   -0.467237
     2  N    0.491300
     3  O   -0.504053
     4  C    0.000462
     5  C    0.188875
     6  N   -0.780289
     7  C    0.060262
     8  H    0.180079
     9  C   -0.301429
    10  C   -0.327937
    11  C   -0.321491
    12  C   -0.306653
    13  C   -0.037189
    14  H    0.189960
    15  N   -0.511220
    16  C    0.119999
    17  H    0.295306
    18  H    0.404872
    19  H    0.190186
    20  H    0.161380
    21  H    0.174646
    22  H    0.149361
    23  H    0.199937
    24  H    0.164540
    25  H    0.187063
    26  H    0.150345
    27  H    0.248926
 Sum of Mulliken charges =  -0.00000

 Dipole moment (field-independent basis, Debye):
    X=              5.4155    Y=              4.7961    Z=              1.2813  Tot=              7.3466
 Quadrupole moment (field-independent basis, Debye-Ang):
   XX=           -106.1397   YY=            -79.2242   ZZ=            -81.5019
   XY=             -1.7661   XZ=             -0.1323   YZ=              1.8553

 Normal termination of Gaussian 16 at Sat Jul  1 19:54:06 2023.
