 Gaussian 16, Revision C.02,
 Gaussian 16:  ES64L-G16RevC.02  7-Dec-2021

 ---------------------------------------------------------
 #MP2/6-31G* SCF=Tight Opt=(ModRedun, MaxCycle=20 ) NoSymm
 ---------------------------------------------------------

 --------
 MolName:
 --------
 Symbolic Z-matrix:
 Charge =  0 Multiplicity = 1

 SCF Done:  E(RHF) =  -661.280698275     A.U. after   16 cycles
 E2 =    -0.2037416770D+01 EUMP2 =    -0.66331811504487D+03
 SCF Done:  E(RHF) =  -661.297857401     A.U. after   15 cycles
 E2 =    -0.2032846527D+01 EUMP2 =    -0.66333070392779D+03
 SCF Done:  E(RHF) =  -661.298417176     A.U. after   15 cycles
 E2 =    -0.2033684806D+01 EUMP2 =    -0.66333210198189D+03
 SCF Done:  E(RHF) =  -661.287678854     A.U. after   17 cycles
 E2 =    -0.2037011529D+01 EUMP2 =    -0.66332469038315D+03
 SCF Done:  E(RHF) =  -661.298435366     A.U. after   14 cycles
 E2 =    -0.2035172333D+01 EUMP2 =    -0.66333360769950D+03
 SCF Done:  E(RHF) =  -661.299012669     A.U. after   12 cycles
 E2 =    -0.2034757822D+01 EUMP2 =    -0.66333377049116D+03
 SCF Done:  E(RHF) =  -661.299391634     A.U. after   12 cycles
 E2 =    -0.2034407149D+01 EUMP2 =    -0.66333379878365D+03
 SCF Done:  E(RHF) =  -661.299404441     A.U. after   11 cycles
 E2 =    -0.2034398437D+01 EUMP2 =    -0.66333380287850D+03
 SCF Done:  E(RHF) =  -661.299375730     A.U. after    9 cycles
 E2 =    -0.2034427419D+01 EUMP2 =    -0.66333380314899D+03
 Optimization completed.
    -- Stationary point found.

                          Input orientation:
 ---------------------------------------------------------------------
 Center     Atomic      Atomic             Coordinates (Angstroms)
 Number     Number       Type             X           Y           Z
 ---------------------------------------------------------------------
      1          8           0       -3.512632   -1.391187   -0.400184
      2          7           0       -3.132607   -0.234337   -0.133688
      3          8           0       -3.910518    0.724058    0.041096
      4          6           0       -1.703180   -0.018714   -0.007004
      5          6           0       -1.320937    1.266711    0.283680
      6          7           0       -0.063300    1.712820    0.405708
      7          6           0        1.215380    1.025845    0.360501
      8          1           0        1.856062    1.567960    1.071799
      9          6           0        1.910131    1.034847   -0.997981
     10          6           0        3.308126    0.425939   -0.835378
     11          6           0        3.261864   -0.969159   -0.205052
     12          6           0        2.471274   -0.980829    1.105574
     13          6           0        1.063798   -0.420506    0.875558
     14          1           0        0.489997   -0.393513    1.814919
     15          7           0        0.410083   -1.306704   -0.084355
     16          6           0       -0.838178   -1.123641   -0.382569
     17          1           0       -2.099774    2.008783    0.430087
     18          1           0        0.002321    2.704446    0.608664
     19          1           0        1.312752    0.455995   -1.710014
     20          1           0        1.976427    2.061951   -1.378199
     21          1           0        3.809223    0.384782   -1.809200
     22          1           0        3.910719    1.093262   -0.202775
     23          1           0        2.782737   -1.667003   -0.898866
     24          1           0        4.282032   -1.331449   -0.031310
     25          1           0        2.386170   -2.003414    1.487854
     26          1           0        2.985734   -0.385361    1.872612
     27          1           0       -1.293684   -1.877573   -1.024477
 ---------------------------------------------------------------------

 Alpha  occ. eigenvalues --  -20.59170 -20.58811 -15.84655 -15.64086 -15.56139
 Alpha  occ. eigenvalues --  -11.35157 -11.29711 -11.29608 -11.28540 -11.27076
 Alpha  occ. eigenvalues --  -11.23819 -11.23274 -11.22660 -11.22111  -1.57038
 Alpha  occ. eigenvalues --   -1.36631  -1.31144  -1.22893  -1.14755  -1.09782
 Alpha  occ. eigenvalues --   -1.02919  -1.01366  -0.94484  -0.89655  -0.85668
 Alpha  occ. eigenvalues --   -0.82419  -0.78614  -0.77341  -0.75197  -0.71716
 Alpha  occ. eigenvalues --   -0.69709  -0.69403  -0.67912  -0.64971  -0.63707
 Alpha  occ. eigenvalues --   -0.62631  -0.60274  -0.57863  -0.56981  -0.55015
 Alpha  occ. eigenvalues --   -0.54560  -0.50802  -0.50178  -0.48618  -0.48066
 Alpha  occ. eigenvalues --   -0.47331  -0.46157  -0.46086  -0.43620  -0.41703
 Alpha  occ. eigenvalues --   -0.39756  -0.33723
 Alpha virt. eigenvalues --    0.07443   0.11786   0.17322   0.21847   0.24029
 Alpha virt. eigenvalues --    0.25650   0.27129   0.28597   0.29020   0.29614
 Alpha virt. eigenvalues --    0.30577   0.31799   0.31985   0.32775   0.33878

 Mulliken charges:
               1
     1  O   -0.468371
     2  N    0.490220
     3  O   -0.504592
     4  C   -0.001619
     5  C    0.193114
     6  N   -0.780227
     7  C    0.063495
     8  H    0.181806
     9  C   -0.302176
    10  C   -0.328846
    11  C   -0.321521
    12  C   -0.306145
    13  C   -0.035315
    14  H    0.190403
    15  N   -0.513296
    16  C    0.118391
    17  H    0.297464
    18  H    0.400696
    19  H    0.191301
    20  H    0.161226
    21  H    0.175248
    22  H    0.149556
    23  H    0.199854
    24  H    0.164639
    25  H    0.186516
    26  H    0.149818
    27  H    0.248362
 Sum of Mulliken charges =  -0.00000

 Dipole moment (field-independent basis, Debye):
    X=              5.4761    Y=              4.8508    Z=              1.2713  Tot=              7.4252
 Quadrupole moment (field-independent basis, Debye-Ang):
   XX=           -106.2773   YY=            -79.2331   ZZ=            -81.5468
   XY=             -1.8820   XZ=             -0.3851   YZ=              1.6891

 Normal termination of Gaussian 16 at Sat Jul  1 20:14:19 2023.
