 Gaussian 16, Revision C.02,
 Gaussian 16:  ES64L-G16RevC.02  7-Dec-2021

 ---------------------------------------------------------
 #MP2/6-31G* SCF=Tight Opt=(ModRedun, MaxCycle=20 ) NoSymm
 ---------------------------------------------------------

 --------
 MolName:
 --------
 Symbolic Z-matrix:
 Charge =  0 Multiplicity = 1

 SCF Done:  E(RHF) =  -661.277886370     A.U. after   16 cycles
 E2 =    -0.2037868691D+01 EUMP2 =    -0.66331575506050D+03
 SCF Done:  E(RHF) =  -661.295222315     A.U. after   15 cycles
 E2 =    -0.2033324652D+01 EUMP2 =    -0.66332854696662D+03
 SCF Done:  E(RHF) =  -661.295723295     A.U. after   15 cycles
 E2 =    -0.2034193098D+01 EUMP2 =    -0.66332991639311D+03
 SCF Done:  E(RHF) =  -661.283799217     A.U. after   17 cycles
 E2 =    -0.2037802924D+01 EUMP2 =    -0.66332160214071D+03
 SCF Done:  E(RHF) =  -661.295522187     A.U. after   14 cycles
 E2 =    -0.2035588554D+01 EUMP2 =    -0.66333111074026D+03
 SCF Done:  E(RHF) =  -661.296034945     A.U. after   12 cycles
 E2 =    -0.2035191008D+01 EUMP2 =    -0.66333122595357D+03
 SCF Done:  E(RHF) =  -661.296349161     A.U. after   11 cycles
 E2 =    -0.2034892213D+01 EUMP2 =    -0.66333124137428D+03
 SCF Done:  E(RHF) =  -661.296376220     A.U. after   11 cycles
 E2 =    -0.2034867025D+01 EUMP2 =    -0.66333124324514D+03
 SCF Done:  E(RHF) =  -661.296344439     A.U. after    9 cycles
 E2 =    -0.2034899146D+01 EUMP2 =    -0.66333124358522D+03
 Optimization completed.
    -- Stationary point found.

                          Input orientation:
 ---------------------------------------------------------------------
 Center     Atomic      Atomic             Coordinates (Angstroms)
 Number     Number       Type             X           Y           Z
 ---------------------------------------------------------------------
      1          8           0       -3.516748   -1.393817   -0.425403
      2          7           0       -3.143792   -0.237919   -0.145160
      3          8           0       -3.926341    0.716355    0.033752
      4          6           0       -1.719450   -0.012958   -0.005179
      5          6           0       -1.340630    1.272637    0.295658
      6          7           0       -0.069989    1.676348    0.416898
      7          6           0        1.224027    1.028528    0.356779
      8          1           0        1.856183    1.584737    1.064154
      9          6           0        1.912785    1.033280   -1.002869
     10          6           0        3.310109    0.422352   -0.837964
     11          6           0        3.264660   -0.970759   -0.201839
     12          6           0        2.476014   -0.981739    1.110472
     13          6           0        1.071102   -0.415284    0.883481
     14          1           0        0.498290   -0.381203    1.822651
     15          7           0        0.412313   -1.295012   -0.080793
     16          6           0       -0.836581   -1.106934   -0.383454
     17          1           0       -2.103021    2.028254    0.452585
     18          1           0        0.001041    2.670393    0.612426
     19          1           0        1.313828    0.452063   -1.711193
     20          1           0        1.980094    2.058966   -1.386852
     21          1           0        3.810262    0.376673   -1.812013
     22          1           0        3.914247    1.091707   -0.208914
     23          1           0        2.785635   -1.670820   -0.893493
     24          1           0        4.285582   -1.331322   -0.028999
     25          1           0        2.390743   -2.004457    1.492529
     26          1           0        2.993487   -0.387556    1.876635
     27          1           0       -1.285847   -1.858504   -1.032873
 ---------------------------------------------------------------------

 Alpha  occ. eigenvalues --  -20.59109 -20.58725 -15.84588 -15.64014 -15.56193
 Alpha  occ. eigenvalues --  -11.35308 -11.29823 -11.29666 -11.28471 -11.27029
 Alpha  occ. eigenvalues --  -11.23893 -11.23334 -11.22632 -11.22131  -1.56960
 Alpha  occ. eigenvalues --   -1.36557  -1.31303  -1.22725  -1.14798  -1.09739
 Alpha  occ. eigenvalues --   -1.03029  -1.01412  -0.94476  -0.89618  -0.85752
 Alpha  occ. eigenvalues --   -0.82395  -0.78643  -0.77252  -0.75172  -0.71389
 Alpha  occ. eigenvalues --   -0.69652  -0.69370  -0.67998  -0.65103  -0.63603
 Alpha  occ. eigenvalues --   -0.62847  -0.60249  -0.58000  -0.56974  -0.54987
 Alpha  occ. eigenvalues --   -0.54463  -0.50834  -0.50245  -0.48578  -0.48026
 Alpha  occ. eigenvalues --   -0.47286  -0.46163  -0.46117  -0.43563  -0.41694
 Alpha  occ. eigenvalues --   -0.39682  -0.33634
 Alpha virt. eigenvalues --    0.07406   0.11765   0.17302   0.21839   0.23931
 Alpha virt. eigenvalues --    0.25648   0.27097   0.28498   0.28989   0.29548
 Alpha virt. eigenvalues --    0.30529   0.31806   0.31928   0.32774   0.33805

 Mulliken charges:
               1
     1  O   -0.469509
     2  N    0.488939
     3  O   -0.505030
     4  C   -0.002708
     5  C    0.196398
     6  N   -0.779394
     7  C    0.065741
     8  H    0.183446
     9  C   -0.302534
    10  C   -0.329814
    11  C   -0.321457
    12  C   -0.305623
    13  C   -0.033636
    14  H    0.190588
    15  N   -0.514622
    16  C    0.116699
    17  H    0.299395
    18  H    0.396276
    19  H    0.192471
    20  H    0.161496
    21  H    0.175843
    22  H    0.149671
    23  H    0.199759
    24  H    0.164704
    25  H    0.185931
    26  H    0.149248
    27  H    0.247722
 Sum of Mulliken charges =  -0.00000

 Dipole moment (field-independent basis, Debye):
    X=              5.5288    Y=              4.9006    Z=              1.2882  Tot=              7.4995
 Quadrupole moment (field-independent basis, Debye-Ang):
   XX=           -106.4104   YY=            -79.2902   ZZ=            -81.5424
   XY=             -2.0223   XZ=             -0.6148   YZ=              1.6317

 Normal termination of Gaussian 16 at Sat Jul  1 20:32:54 2023.
