 Gaussian 16, Revision C.02,
 Gaussian 16:  ES64L-G16RevC.02  7-Dec-2021

 ---------------------------------------------------------
 #MP2/6-31G* SCF=Tight Opt=(ModRedun, MaxCycle=20 ) NoSymm
 ---------------------------------------------------------

 --------
 MolName:
 --------
 Symbolic Z-matrix:
 Charge =  0 Multiplicity = 1

 SCF Done:  E(RHF) =  -661.276220583     A.U. after   16 cycles
 E2 =    -0.2037658087D+01 EUMP2 =    -0.66331387866999D+03
 SCF Done:  E(RHF) =  -661.293966731     A.U. after   15 cycles
 E2 =    -0.2033075127D+01 EUMP2 =    -0.66332704185803D+03
 SCF Done:  E(RHF) =  -661.295439170     A.U. after   15 cycles
 E2 =    -0.2033776784D+01 EUMP2 =    -0.66332921595456D+03
 SCF Done:  E(RHF) =  -661.290210220     A.U. after   17 cycles
 E2 =    -0.2035963593D+01 EUMP2 =    -0.66332617381292D+03
 SCF Done:  E(RHF) =  -661.297293086     A.U. after   14 cycles
 E2 =    -0.2035287331D+01 EUMP2 =    -0.66333258041767D+03
 SCF Done:  E(RHF) =  -661.298341821     A.U. after   14 cycles
 E2 =    -0.2034742591D+01 EUMP2 =    -0.66333308441236D+03
 SCF Done:  E(RHF) =  -661.299187941     A.U. after   12 cycles
 E2 =    -0.2034156194D+01 EUMP2 =    -0.66333334413493D+03
 SCF Done:  E(RHF) =  -661.299309777     A.U. after   12 cycles
 E2 =    -0.2034187117D+01 EUMP2 =    -0.66333349689367D+03
 SCF Done:  E(RHF) =  -661.299129220     A.U. after   12 cycles
 E2 =    -0.2034420414D+01 EUMP2 =    -0.66333354963411D+03
 SCF Done:  E(RHF) =  -661.298917878     A.U. after   11 cycles
 E2 =    -0.2034641208D+01 EUMP2 =    -0.66333355908627D+03
 SCF Done:  E(RHF) =  -661.298902790     A.U. after   10 cycles
 E2 =    -0.2034656875D+01 EUMP2 =    -0.66333355966474D+03
 Optimization completed.
    -- Stationary point found.

                          Input orientation:
 ---------------------------------------------------------------------
 Center     Atomic      Atomic             Coordinates (Angstroms)
 Number     Number       Type             X           Y           Z
 ---------------------------------------------------------------------
      1          8           0       -3.495625   -1.393784   -0.329156
      2          7           0       -3.107598   -0.232694   -0.094552
      3          8           0       -3.880285    0.727571    0.086808
      4          6           0       -1.667743   -0.025579   -0.019511
      5          6           0       -1.280614    1.255106    0.271404
      6          7           0       -0.050988    1.796573    0.341657
      7          6           0        1.193001    1.023982    0.345684
      8          1           0        1.844939    1.540286    1.067102
      9          6           0        1.914158    1.031993   -1.002715
     10          6           0        3.311476    0.427269   -0.826550
     11          6           0        3.257254   -0.967704   -0.199481
     12          6           0        2.449859   -0.972307    1.099892
     13          6           0        1.039650   -0.425540    0.846441
     14          1           0        0.454148   -0.406973    1.780124
     15          7           0        0.406241   -1.327484   -0.108513
     16          6           0       -0.838445   -1.146826   -0.406883
     17          1           0       -2.092069    1.961176    0.432512
     18          1           0       -0.001998    2.758799    0.652665
     19          1           0        1.327616    0.454430   -1.725512
     20          1           0        1.982488    2.059626   -1.380118
     21          1           0        3.824392    0.388725   -1.794447
     22          1           0        3.904882    1.094287   -0.185102
     23          1           0        2.785066   -1.665529   -0.897993
     24          1           0        4.274045   -1.332396   -0.011261
     25          1           0        2.361203   -1.992145    1.488526
     26          1           0        2.950804   -0.369612    1.869917
     27          1           0       -1.304867   -1.898250   -1.042942
 ---------------------------------------------------------------------

 Alpha  occ. eigenvalues --  -20.59360 -20.59059 -15.84830 -15.64108 -15.56169
 Alpha  occ. eigenvalues --  -11.34857 -11.29539 -11.29536 -11.28790 -11.27217
 Alpha  occ. eigenvalues --  -11.23576 -11.23112 -11.22741 -11.22062  -1.57249
 Alpha  occ. eigenvalues --   -1.36849  -1.30737  -1.23286  -1.14640  -1.09856
 Alpha  occ. eigenvalues --   -1.02666  -1.01218  -0.94464  -0.89713  -0.85401
 Alpha  occ. eigenvalues --   -0.82490  -0.78591  -0.77472  -0.75173  -0.72284
 Alpha  occ. eigenvalues --   -0.69890  -0.69500  -0.67712  -0.64870  -0.63817
 Alpha  occ. eigenvalues --   -0.62007  -0.60272  -0.57473  -0.57046  -0.55165
 Alpha  occ. eigenvalues --   -0.54519  -0.50702  -0.50026  -0.48722  -0.48146
 Alpha  occ. eigenvalues --   -0.47434  -0.46125  -0.45986  -0.43770  -0.41672
 Alpha  occ. eigenvalues --   -0.40007  -0.34044
 Alpha virt. eigenvalues --    0.07405   0.11790   0.17254   0.21837   0.24181
 Alpha virt. eigenvalues --    0.25700   0.27082   0.28773   0.29056   0.29678
 Alpha virt. eigenvalues --    0.30830   0.31808   0.32067   0.32734   0.34058

 Mulliken charges:
               1
     1  O   -0.465659
     2  N    0.492241
     3  O   -0.502654
     4  C    0.006121
     5  C    0.178738
     6  N   -0.774759
     7  C    0.052866
     8  H    0.177810
     9  C   -0.299583
    10  C   -0.327113
    11  C   -0.321288
    12  C   -0.307191
    13  C   -0.039894
    14  H    0.188638
    15  N   -0.506491
    16  C    0.121612
    17  H    0.292461
    18  H    0.407704
    19  H    0.188919
    20  H    0.162801
    21  H    0.173951
    22  H    0.148973
    23  H    0.199963
    24  H    0.164374
    25  H    0.187538
    26  H    0.150873
    27  H    0.249049
 Sum of Mulliken charges =  -0.00000

 Dipole moment (field-independent basis, Debye):
    X=              5.3119    Y=              4.6829    Z=              1.3651  Tot=              7.2118
 Quadrupole moment (field-independent basis, Debye-Ang):
   XX=           -105.8939   YY=            -79.4610   ZZ=            -81.3091
   XY=             -1.6883   XZ=              0.2132   YZ=              2.3338

 Normal termination of Gaussian 16 at Fri Jun 30 23:02:07 2023.
