 Gaussian 09, Revision A.01,
 Gaussian 09:  EM64L-G09RevA.01  8-May-2009

 ------------------------------
 #HF/6-31G* Opt=Z-matrix NoSymm
 ------------------------------

 -------------------------------
 water interaction with atom H15
 -------------------------------
 Symbolic Z-matrix:
 Charge =  0 Multiplicity = 1

 SCF Done:  E(RHF) =  -1154.68474993     A.U. after   15 cycles
 SCF Done:  E(RHF) =  -1154.68475342     A.U. after    8 cycles
 SCF Done:  E(RHF) =  -1154.68475691     A.U. after    9 cycles
 SCF Done:  E(RHF) =  -1154.68475703     A.U. after    8 cycles
 Optimization completed.
    -- Stationary point found.

                         Z-Matrix orientation:
 ---------------------------------------------------------------------
 Center     Atomic      Atomic             Coordinates (Angstroms)
 Number     Number       Type             X           Y           Z
 ---------------------------------------------------------------------
      1          9           0       -1.969300    2.053680    0.000070
      2          6           0       -1.222250    0.944230    0.000030
      3          6           0        0.140030    1.057400   -0.000020
      4          6           0        0.927950   -0.123640   -0.000080
      5          6           0        2.414660   -0.018650   -0.000010
      6          9           0        3.007080   -1.234610   -0.000560
      7          9           0        2.858290    0.654480   -1.086020
      8          9           0        2.858270    0.653500    1.086650
      9          6           0        0.306540   -1.341490   -0.000090
     10          7           0       -1.054170   -1.389970   -0.000060
     11          6           0       -1.930500   -0.312100    0.000000
     12         16           0       -3.570980   -0.506610    0.000030
     13          1           0        0.596860    2.043100   -0.000020
     14          1           0        0.831760   -2.288990   -0.000150
     15          1           0       -1.521480   -2.296390   -0.000090
     16         -1           0       -2.410308   -1.838150   -0.000048
     17         -1           0       -1.952068   -0.949321   -0.000019
     18          8           0       -2.406179   -4.012401   -0.000147
     19          1           0       -2.198926   -4.778396   -0.535431
     20          1           0       -3.150382   -4.287903    0.535103
 ---------------------------------------------------------------------

 Alpha  occ. eigenvalues --  -91.88663 -26.35847 -26.34890 -26.34884 -26.32132
 Alpha  occ. eigenvalues --  -20.60221 -15.66040 -11.53051 -11.36090 -11.35660
 Alpha  occ. eigenvalues --  -11.34467 -11.29827 -11.28784  -8.89777  -6.58114
 Alpha  occ. eigenvalues --   -6.57835  -6.57708  -1.73086  -1.64105  -1.63416
 Alpha  occ. eigenvalues --   -1.63406  -1.38342  -1.33355  -1.15564  -1.10391
 Alpha  occ. eigenvalues --   -1.01583  -0.95639  -0.91125  -0.86583  -0.83494
 Alpha  occ. eigenvalues --   -0.82627  -0.82331  -0.75425  -0.74680  -0.74474
 Alpha  occ. eigenvalues --   -0.72418  -0.71271  -0.70505  -0.70023  -0.68908
 Alpha  occ. eigenvalues --   -0.66523  -0.66511  -0.65109  -0.62674  -0.61864
 Alpha  occ. eigenvalues --   -0.60470  -0.59215  -0.57563  -0.53979  -0.50897
 Alpha  occ. eigenvalues --   -0.44941  -0.41627  -0.32363  -0.29424
 Alpha virt. eigenvalues --    0.06147   0.10240   0.17449   0.22623   0.26433
 Alpha virt. eigenvalues --    0.27172   0.27809   0.28069   0.31044   0.32629
 Alpha virt. eigenvalues --    0.35418   0.40038   0.41859   0.42173   0.44162

 Mulliken atomic charges:
              1
     1  F   -0.363664
     2  C    0.402230
     3  C   -0.177755
     4  C   -0.301962
     5  C    1.203761
     6  F   -0.385607
     7  F   -0.375317
     8  F   -0.375248
     9  C    0.168981
    10  N   -0.827916
    11  C    0.186331
    12  S   -0.263143
    13  H    0.274214
    14  H    0.279682
    15  H    0.530554
    16  O   -0.887176
    17  H    0.449391
    18  H    0.462644
 Sum of Mulliken atomic charges =   0.00000

 Dipole moment (field-independent basis, Debye):
    X=              2.2276    Y=             -5.5714    Z=              0.0049  Tot=              6.0002
 Quadrupole moment (field-independent basis, Debye-Ang):
   XX=           -100.2657   YY=            -51.1719   ZZ=            -81.0492
   XY=             13.4227   XZ=             -1.4039   YZ=              0.6387

 Normal termination of Gaussian 09 at Fri Sep 24 08:33:02 2021.
