 Gaussian 09, Revision A.01,
 Gaussian 09:  EM64L-G09RevA.01  8-May-2009

 ------------------------------
 #HF/6-31G* Opt=Z-matrix NoSymm
 ------------------------------

 -------------------------------
 water interaction with atom H15
 -------------------------------
 Symbolic Z-matrix:
 Charge =  0 Multiplicity = 1

 SCF Done:  E(RHF) =  -1154.68407642     A.U. after   15 cycles
 SCF Done:  E(RHF) =  -1154.68457680     A.U. after   10 cycles
 SCF Done:  E(RHF) =  -1154.68535430     A.U. after   10 cycles
 SCF Done:  E(RHF) =  -1154.68555399     A.U. after   10 cycles
 SCF Done:  E(RHF) =  -1154.68555414     A.U. after    8 cycles
 Optimization completed.
    -- Stationary point found.

                         Z-Matrix orientation:
 ---------------------------------------------------------------------
 Center     Atomic      Atomic             Coordinates (Angstroms)
 Number     Number       Type             X           Y           Z
 ---------------------------------------------------------------------
      1          9           0       -1.969300    2.053680    0.000070
      2          6           0       -1.222250    0.944230    0.000030
      3          6           0        0.140030    1.057400   -0.000020
      4          6           0        0.927950   -0.123640   -0.000080
      5          6           0        2.414660   -0.018650   -0.000010
      6          9           0        3.007080   -1.234610   -0.000560
      7          9           0        2.858290    0.654480   -1.086020
      8          9           0        2.858270    0.653500    1.086650
      9          6           0        0.306540   -1.341490   -0.000090
     10          7           0       -1.054170   -1.389970   -0.000060
     11          6           0       -1.930500   -0.312100    0.000000
     12         16           0       -3.570980   -0.506610    0.000030
     13          1           0        0.596860    2.043100   -0.000020
     14          1           0        0.831760   -2.288990   -0.000150
     15          1           0       -1.521480   -2.296390   -0.000090
     16         -1           0       -2.410308   -1.838150   -0.000048
     17         -1           0       -1.952068   -0.949321   -0.000019
     18          8           0       -2.398358   -3.997231   -0.000146
     19          1           0       -3.339632   -4.171115   -0.000132
     20          1           0       -1.994034   -4.864845   -0.000195
 ---------------------------------------------------------------------

 Alpha  occ. eigenvalues --  -91.88800 -26.35893 -26.34926 -26.34923 -26.32185
 Alpha  occ. eigenvalues --  -20.60219 -15.66071 -11.53095 -11.36174 -11.35722
 Alpha  occ. eigenvalues --  -11.34531 -11.29891 -11.28846  -8.89912  -6.58251
 Alpha  occ. eigenvalues --   -6.57969  -6.57846  -1.73127  -1.64148  -1.63469
 Alpha  occ. eigenvalues --   -1.63442  -1.38352  -1.33398  -1.15618  -1.10459
 Alpha  occ. eigenvalues --   -1.01649  -0.95702  -0.91185  -0.86664  -0.83545
 Alpha  occ. eigenvalues --   -0.82671  -0.82370  -0.75484  -0.74654  -0.74535
 Alpha  occ. eigenvalues --   -0.72484  -0.71311  -0.70554  -0.70074  -0.68980
 Alpha  occ. eigenvalues --   -0.66561  -0.66555  -0.65146  -0.62727  -0.61885
 Alpha  occ. eigenvalues --   -0.60506  -0.59268  -0.57600  -0.54009  -0.51016
 Alpha  occ. eigenvalues --   -0.44980  -0.41686  -0.32549  -0.29518
 Alpha virt. eigenvalues --    0.06095   0.10180   0.17429   0.22597   0.26362
 Alpha virt. eigenvalues --    0.27019   0.27933   0.28013   0.31013   0.32586
 Alpha virt. eigenvalues --    0.35370   0.40060   0.41815   0.42305   0.44067

 Mulliken atomic charges:
              1
     1  F   -0.363593
     2  C    0.402163
     3  C   -0.177327
     4  C   -0.301892
     5  C    1.203848
     6  F   -0.385657
     7  F   -0.375155
     8  F   -0.375160
     9  C    0.170108
    10  N   -0.827184
    11  C    0.189664
    12  S   -0.269163
    13  H    0.274566
    14  H    0.277953
    15  H    0.533190
    16  O   -0.889691
    17  H    0.466548
    18  H    0.446783
 Sum of Mulliken atomic charges =   0.00000

 Dipole moment (field-independent basis, Debye):
    X=              2.2697    Y=             -5.5209    Z=             -0.0005  Tot=              5.9692
 Quadrupole moment (field-independent basis, Debye-Ang):
   XX=            -99.1904   YY=            -51.0689   ZZ=            -82.6485
   XY=             12.6927   XZ=              0.0001   YZ=              0.0011

 Normal termination of Gaussian 09 at Fri Sep 24 08:30:07 2021.
