 Gaussian 09, Revision A.01,
 Gaussian 09:  EM64L-G09RevA.01  8-May-2009

 ------------------------------
 #HF/6-31G* Opt=Z-matrix NoSymm
 ------------------------------

 -------------------------------
 water interaction with atom H15
 -------------------------------
 Symbolic Z-matrix:
 Charge =  0 Multiplicity = 1

 SCF Done:  E(RHF) =  -1154.68399397     A.U. after   15 cycles
 SCF Done:  E(RHF) =  -1154.68399745     A.U. after    8 cycles
 SCF Done:  E(RHF) =  -1154.68400087     A.U. after    9 cycles
 SCF Done:  E(RHF) =  -1154.68400101     A.U. after    8 cycles
 Optimization completed.
    -- Stationary point found.

                         Z-Matrix orientation:
 ---------------------------------------------------------------------
 Center     Atomic      Atomic             Coordinates (Angstroms)
 Number     Number       Type             X           Y           Z
 ---------------------------------------------------------------------
      1          9           0       -1.969300    2.053680    0.000070
      2          6           0       -1.222250    0.944230    0.000030
      3          6           0        0.140030    1.057400   -0.000020
      4          6           0        0.927950   -0.123640   -0.000080
      5          6           0        2.414660   -0.018650   -0.000010
      6          9           0        3.007080   -1.234610   -0.000560
      7          9           0        2.858290    0.654480   -1.086020
      8          9           0        2.858270    0.653500    1.086650
      9          6           0        0.306540   -1.341490   -0.000090
     10          7           0       -1.054170   -1.389970   -0.000060
     11          6           0       -1.930500   -0.312100    0.000000
     12         16           0       -3.570980   -0.506610    0.000030
     13          1           0        0.596860    2.043100   -0.000020
     14          1           0        0.831760   -2.288990   -0.000150
     15          1           0       -1.521480   -2.296390   -0.000090
     16         -1           0       -2.410308   -1.838150   -0.000048
     17         -1           0       -1.952068   -0.949321   -0.000019
     18          8           0       -2.413946   -4.027467   -0.000147
     19          1           0       -2.682439   -4.548181   -0.757115
     20          1           0       -2.682404   -4.548250    0.756786
 ---------------------------------------------------------------------

 Alpha  occ. eigenvalues --  -91.88537 -26.35803 -26.34853 -26.34851 -26.32084
 Alpha  occ. eigenvalues --  -20.60215 -15.66011 -11.53009 -11.36012 -11.35604
 Alpha  occ. eigenvalues --  -11.34407 -11.29767 -11.28725  -8.89652  -6.57988
 Alpha  occ. eigenvalues --   -6.57711  -6.57581  -1.73048  -1.64064  -1.63371
 Alpha  occ. eigenvalues --   -1.63367  -1.38326  -1.33315  -1.15513  -1.10329
 Alpha  occ. eigenvalues --   -1.01522  -0.95580  -0.91069  -0.86507  -0.83446
 Alpha  occ. eigenvalues --   -0.82585  -0.82295  -0.75370  -0.74700  -0.74417
 Alpha  occ. eigenvalues --   -0.72356  -0.71234  -0.70459  -0.69975  -0.68839
 Alpha  occ. eigenvalues --   -0.66486  -0.66470  -0.65073  -0.62625  -0.61840
 Alpha  occ. eigenvalues --   -0.60438  -0.59165  -0.57528  -0.53942  -0.50786
 Alpha  occ. eigenvalues --   -0.44905  -0.41572  -0.32192  -0.29337
 Alpha virt. eigenvalues --    0.06197   0.10296   0.17457   0.22643   0.26508
 Alpha virt. eigenvalues --    0.27303   0.27739   0.28106   0.31072   0.32673
 Alpha virt. eigenvalues --    0.35461   0.40029   0.41900   0.42061   0.44250

 Mulliken atomic charges:
              1
     1  F   -0.363730
     2  C    0.402305
     3  C   -0.178160
     4  C   -0.302043
     5  C    1.203684
     6  F   -0.385554
     7  F   -0.375399
     8  F   -0.375404
     9  C    0.167950
    10  N   -0.828574
    11  C    0.183164
    12  S   -0.257265
    13  H    0.273883
    14  H    0.281330
    15  H    0.527997
    16  O   -0.885035
    17  H    0.455425
    18  H    0.455425
 Sum of Mulliken atomic charges =   0.00000

 Dipole moment (field-independent basis, Debye):
    X=              2.1876    Y=             -5.6170    Z=             -0.0005  Tot=              6.0280
 Quadrupole moment (field-independent basis, Debye-Ang):
   XX=           -101.3478   YY=            -51.2923   ZZ=            -79.4501
   XY=             14.1428   XZ=              0.0003   YZ=              0.0009

 Normal termination of Gaussian 09 at Fri Sep 24 08:31:56 2021.
