 Gaussian 16, Revision C.02,
 Gaussian 16:  ES64L-G16RevC.02  7-Dec-2021

 ---------------------------------------------------------
 #MP2/6-31G* SCF=Tight Opt=(ModRedun, MaxCycle=20 ) NoSymm
 ---------------------------------------------------------

 --------
 MolName:
 --------
 Symbolic Z-matrix:
 Charge =  0 Multiplicity = 1

 SCF Done:  E(RHF) =  -661.271125175     A.U. after   16 cycles
 E2 =    -0.2038440038D+01 EUMP2 =    -0.66330956521299D+03
 SCF Done:  E(RHF) =  -661.288737066     A.U. after   15 cycles
 E2 =    -0.2034089432D+01 EUMP2 =    -0.66332282649804D+03
 SCF Done:  E(RHF) =  -661.288327022     A.U. after   16 cycles
 E2 =    -0.2035409953D+01 EUMP2 =    -0.66332373697453D+03
 SCF Done:  E(RHF) =  -661.288351306     A.U. after   17 cycles
 E2 =    -0.2037113445D+01 EUMP2 =    -0.66332546475139D+03
 SCF Done:  E(RHF) =  -661.292829376     A.U. after   15 cycles
 E2 =    -0.2036886828D+01 EUMP2 =    -0.66332971620393D+03
 SCF Done:  E(RHF) =  -661.294735959     A.U. after   15 cycles
 E2 =    -0.2036207846D+01 EUMP2 =    -0.66333094380455D+03
 SCF Done:  E(RHF) =  -661.295283963     A.U. after   14 cycles
 E2 =    -0.2036137313D+01 EUMP2 =    -0.66333142127626D+03
 SCF Done:  E(RHF) =  -661.295302294     A.U. after   12 cycles
 E2 =    -0.2036152694D+01 EUMP2 =    -0.66333145498785D+03
 SCF Done:  E(RHF) =  -661.295283594     A.U. after   10 cycles
 E2 =    -0.2036173422D+01 EUMP2 =    -0.66333145701659D+03
 SCF Done:  E(RHF) =  -661.295274103     A.U. after    9 cycles
 E2 =    -0.2036183399D+01 EUMP2 =    -0.66333145750188D+03
 Optimization completed.
    -- Stationary point found.

                          Input orientation:
 ---------------------------------------------------------------------
 Center     Atomic      Atomic             Coordinates (Angstroms)
 Number     Number       Type             X           Y           Z
 ---------------------------------------------------------------------
      1          8           0       -3.474102   -1.444283   -0.248469
      2          7           0       -3.116068   -0.270189   -0.030215
      3          8           0       -3.906224    0.663382    0.206172
      4          6           0       -1.688097   -0.005783   -0.053862
      5          6           0       -1.299631    1.240629    0.353285
      6          7           0       -0.066377    1.781602    0.236075
      7          6           0        1.195316    1.037545    0.280015
      8          1           0        1.821519    1.571559    1.011727
      9          6           0        1.957904    1.023428   -1.041802
     10          6           0        3.343914    0.412199   -0.805164
     11          6           0        3.260190   -0.973514   -0.159233
     12          6           0        2.407235   -0.960401    1.111714
     13          6           0        1.014581   -0.398072    0.807359
     14          1           0        0.395238   -0.355627    1.718803
     15          7           0        0.401509   -1.294987   -0.170262
     16          6           0       -0.832265   -1.086897   -0.509296
     17          1           0       -2.087832    1.934240    0.634447
     18          1           0       -0.002365    2.721186    0.613097
     19          1           0        1.394170    0.439956   -1.777026
     20          1           0        2.045947    2.045718   -1.429397
     21          1           0        3.891435    0.355181   -1.752888
     22          1           0        3.918799    1.085316   -0.153199
     23          1           0        2.811157   -1.678938   -0.865245
     24          1           0        4.268209   -1.339045    0.070044
     25          1           0        2.297304   -1.976319    1.505675
     26          1           0        2.887720   -0.356202    1.893613
     27          1           0       -1.281187   -1.810694   -1.188970
 ---------------------------------------------------------------------

 Alpha  occ. eigenvalues --  -20.59515 -20.59196 -15.84910 -15.63594 -15.56641
 Alpha  occ. eigenvalues --  -11.34813 -11.29755 -11.29542 -11.28868 -11.27284
 Alpha  occ. eigenvalues --  -11.23485 -11.23112 -11.22809 -11.22111  -1.57338
 Alpha  occ. eigenvalues --   -1.36970  -1.30621  -1.23244  -1.14688  -1.09822
 Alpha  occ. eigenvalues --   -1.02714  -1.01199  -0.94467  -0.89691  -0.85395
 Alpha  occ. eigenvalues --   -0.82451  -0.78384  -0.77489  -0.75053  -0.71740
 Alpha  occ. eigenvalues --   -0.70084  -0.69509  -0.67768  -0.64985  -0.63639
 Alpha  occ. eigenvalues --   -0.62188  -0.60510  -0.57453  -0.57061  -0.55029
 Alpha  occ. eigenvalues --   -0.54492  -0.50747  -0.49888  -0.48820  -0.48109
 Alpha  occ. eigenvalues --   -0.47516  -0.46212  -0.46009  -0.43805  -0.41748
 Alpha  occ. eigenvalues --   -0.40301  -0.34220
 Alpha virt. eigenvalues --    0.06900   0.11651   0.17415   0.21725   0.23936
 Alpha virt. eigenvalues --    0.25517   0.26850   0.28574   0.29107   0.29845
 Alpha virt. eigenvalues --    0.30429   0.31804   0.32017   0.32627   0.34155

 Mulliken charges:
               1
     1  O   -0.465279
     2  N    0.487389
     3  O   -0.497727
     4  C    0.030473
     5  C    0.147736
     6  N   -0.746457
     7  C    0.047612
     8  H    0.176718
     9  C   -0.297482
    10  C   -0.329102
    11  C   -0.320737
    12  C   -0.306529
    13  C   -0.046997
    14  H    0.185013
    15  N   -0.494983
    16  C    0.118249
    17  H    0.291724
    18  H    0.396718
    19  H    0.190055
    20  H    0.164636
    21  H    0.174489
    22  H    0.148812
    23  H    0.199428
    24  H    0.164462
    25  H    0.186837
    26  H    0.150849
    27  H    0.244092
 Sum of Mulliken charges =  -0.00000

 Dipole moment (field-independent basis, Debye):
    X=              5.2589    Y=              4.5494    Z=              1.4299  Tot=              7.0991
 Quadrupole moment (field-independent basis, Debye-Ang):
   XX=           -105.5686   YY=            -80.3569   ZZ=            -80.9316
   XY=             -2.0844   XZ=              0.7173   YZ=              2.9353

 Normal termination of Gaussian 16 at Sun Jul  2 06:54:56 2023.
