 Gaussian 16, Revision C.02,
 Gaussian 16:  ES64L-G16RevC.02  7-Dec-2021

 ---------------------------------------------------------
 #MP2/6-31G* SCF=Tight Opt=(ModRedun, MaxCycle=20 ) NoSymm
 ---------------------------------------------------------

 --------
 MolName:
 --------
 Symbolic Z-matrix:
 Charge =  0 Multiplicity = 1

 SCF Done:  E(RHF) =  -661.277469456     A.U. after   16 cycles
 E2 =    -0.2037670742D+01 EUMP2 =    -0.66331514019806D+03
 SCF Done:  E(RHF) =  -661.294870400     A.U. after   15 cycles
 E2 =    -0.2033118130D+01 EUMP2 =    -0.66332798853035D+03
 SCF Done:  E(RHF) =  -661.294632243     A.U. after   15 cycles
 E2 =    -0.2034185698D+01 EUMP2 =    -0.66332881794174D+03
 SCF Done:  E(RHF) =  -661.291302863     A.U. after   17 cycles
 E2 =    -0.2036256399D+01 EUMP2 =    -0.66332755926155D+03
 SCF Done:  E(RHF) =  -661.297112375     A.U. after   14 cycles
 E2 =    -0.2035732103D+01 EUMP2 =    -0.66333284447882D+03
 SCF Done:  E(RHF) =  -661.298345381     A.U. after   14 cycles
 E2 =    -0.2035432826D+01 EUMP2 =    -0.66333377820717D+03
 SCF Done:  E(RHF) =  -661.298993834     A.U. after   13 cycles
 E2 =    -0.2034905114D+01 EUMP2 =    -0.66333389894775D+03
 SCF Done:  E(RHF) =  -661.299028968     A.U. after   11 cycles
 E2 =    -0.2034878847D+01 EUMP2 =    -0.66333390781537D+03
 SCF Done:  E(RHF) =  -661.299006685     A.U. after   10 cycles
 E2 =    -0.2034902373D+01 EUMP2 =    -0.66333390905800D+03
 Optimization completed.
    -- Stationary point found.

                          Input orientation:
 ---------------------------------------------------------------------
 Center     Atomic      Atomic             Coordinates (Angstroms)
 Number     Number       Type             X           Y           Z
 ---------------------------------------------------------------------
      1          8           0       -3.493850   -1.414948   -0.313839
      2          7           0       -3.119671   -0.249690   -0.076875
      3          8           0       -3.901691    0.698621    0.127500
      4          6           0       -1.686480   -0.016088   -0.030982
      5          6           0       -1.303805    1.252923    0.313223
      6          7           0       -0.060539    1.766818    0.311887
      7          6           0        1.200394    1.030130    0.320167
      8          1           0        1.838087    1.561632    1.043185
      9          6           0        1.933117    1.028673   -1.019612
     10          6           0        3.326066    0.420109   -0.820034
     11          6           0        3.261255   -0.970832   -0.183437
     12          6           0        2.437820   -0.969418    1.106612
     13          6           0        1.035733   -0.412523    0.836516
     14          1           0        0.438005   -0.380916    1.762051
     15          7           0        0.405733   -1.307859   -0.129744
     16          6           0       -0.835294   -1.114641   -0.445880
     17          1           0       -2.097999    1.964391    0.522949
     18          1           0       -0.001959    2.727916    0.628178
     19          1           0        1.353843    0.447970   -1.745084
     20          1           0        2.009398    2.053792   -1.402451
     21          1           0        3.851343    0.372731   -1.780787
     22          1           0        3.913639    1.090045   -0.176198
     23          1           0        2.797611   -1.672124   -0.884136
     24          1           0        4.275388   -1.335071    0.019275
     25          1           0        2.340902   -1.988174    1.496294
     26          1           0        2.933141   -0.367729    1.881195
     27          1           0       -1.291198   -1.854748   -1.102972
 ---------------------------------------------------------------------

 Alpha  occ. eigenvalues --  -20.59336 -20.59008 -15.84789 -15.63932 -15.56329
 Alpha  occ. eigenvalues --  -11.34938 -11.29627 -11.29599 -11.28709 -11.27201
 Alpha  occ. eigenvalues --  -11.23598 -11.23154 -11.22747 -11.22094  -1.57201
 Alpha  occ. eigenvalues --   -1.36807  -1.30841  -1.23157  -1.14693  -1.09819
 Alpha  occ. eigenvalues --   -1.02768  -1.01259  -0.94477  -0.89686  -0.85477
 Alpha  occ. eigenvalues --   -0.82462  -0.78525  -0.77434  -0.75166  -0.71927
 Alpha  occ. eigenvalues --   -0.69903  -0.69456  -0.67784  -0.64942  -0.63726
 Alpha  occ. eigenvalues --   -0.62277  -0.60380  -0.57588  -0.57045  -0.55068
 Alpha  occ. eigenvalues --   -0.54531  -0.50752  -0.50012  -0.48713  -0.48104
 Alpha  occ. eigenvalues --   -0.47425  -0.46160  -0.46038  -0.43723  -0.41701
 Alpha  occ. eigenvalues --   -0.40050  -0.33989
 Alpha virt. eigenvalues --    0.07271   0.11762   0.17323   0.21805   0.24086
 Alpha virt. eigenvalues --    0.25688   0.26951   0.28673   0.29061   0.29753
 Alpha virt. eigenvalues --    0.30585   0.31805   0.32005   0.32699   0.34074

 Mulliken charges:
               1
     1  O   -0.466576
     2  N    0.489869
     3  O   -0.502141
     4  C    0.010334
     5  C    0.173909
     6  N   -0.768442
     7  C    0.056651
     8  H    0.178326
     9  C   -0.299279
    10  C   -0.328525
    11  C   -0.321114
    12  C   -0.306784
    13  C   -0.041607
    14  H    0.187141
    15  N   -0.504118
    16  C    0.120588
    17  H    0.294317
    18  H    0.402086
    19  H    0.190196
    20  H    0.163183
    21  H    0.174554
    22  H    0.148995
    23  H    0.199787
    24  H    0.164472
    25  H    0.186994
    26  H    0.150509
    27  H    0.246673
 Sum of Mulliken charges =  -0.00000

 Dipole moment (field-independent basis, Debye):
    X=              5.3461    Y=              4.7029    Z=              1.3872  Tot=              7.2541
 Quadrupole moment (field-independent basis, Debye-Ang):
   XX=           -105.9448   YY=            -79.7271   ZZ=            -81.1761
   XY=             -1.9596   XZ=              0.2550   YZ=              2.4600

 Normal termination of Gaussian 16 at Sun Jul  2 06:30:36 2023.
