 Gaussian 16, Revision C.02,
 Gaussian 16:  ES64L-G16RevC.02  7-Dec-2021

 ---------------------------------------------------------
 #MP2/6-31G* SCF=Tight Opt=(ModRedun, MaxCycle=20 ) NoSymm
 ---------------------------------------------------------

 --------
 MolName:
 --------
 Symbolic Z-matrix:
 Charge =  0 Multiplicity = 1

 SCF Done:  E(RHF) =  -661.281171088     A.U. after   16 cycles
 E2 =    -0.2037264712D+01 EUMP2 =    -0.66331843580006D+03
 SCF Done:  E(RHF) =  -661.298322074     A.U. after   15 cycles
 E2 =    -0.2032674620D+01 EUMP2 =    -0.66333099669419D+03
 SCF Done:  E(RHF) =  -661.298763150     A.U. after   15 cycles
 E2 =    -0.2033518923D+01 EUMP2 =    -0.66333228207345D+03
 SCF Done:  E(RHF) =  -661.289442493     A.U. after   17 cycles
 E2 =    -0.2036504710D+01 EUMP2 =    -0.66332594720298D+03
 SCF Done:  E(RHF) =  -661.299240992     A.U. after   14 cycles
 E2 =    -0.2035055627D+01 EUMP2 =    -0.66333429661834D+03
 SCF Done:  E(RHF) =  -661.299906080     A.U. after   13 cycles
 E2 =    -0.2034687710D+01 EUMP2 =    -0.66333459379001D+03
 SCF Done:  E(RHF) =  -661.300425956     A.U. after   12 cycles
 E2 =    -0.2034217006D+01 EUMP2 =    -0.66333464296181D+03
 SCF Done:  E(RHF) =  -661.300407774     A.U. after   11 cycles
 E2 =    -0.2034240769D+01 EUMP2 =    -0.66333464854349D+03
 Optimization completed.
    -- Stationary point found.

                          Input orientation:
 ---------------------------------------------------------------------
 Center     Atomic      Atomic             Coordinates (Angstroms)
 Number     Number       Type             X           Y           Z
 ---------------------------------------------------------------------
      1          8           0       -3.505801   -1.390972   -0.372244
      2          7           0       -3.121600   -0.232822   -0.118369
      3          8           0       -3.896276    0.727511    0.056698
      4          6           0       -1.687393   -0.023602   -0.008970
      5          6           0       -1.302017    1.261169    0.275415
      6          7           0       -0.057586    1.750121    0.385932
      7          6           0        1.205345    1.023608    0.359023
      8          1           0        1.853223    1.552877    1.074185
      9          6           0        1.909234    1.034744   -0.996698
     10          6           0        3.307697    0.428356   -0.832252
     11          6           0        3.259840   -0.967726   -0.205615
     12          6           0        2.464457   -0.978278    1.101714
     13          6           0        1.054731   -0.424722    0.865161
     14          1           0        0.478357   -0.403578    1.803706
     15          7           0        0.408003   -1.317606   -0.091534
     16          6           0       -0.839181   -1.137321   -0.386761
     17          1           0       -2.096574    1.988311    0.419021
     18          1           0        0.002707    2.735197    0.615190
     19          1           0        1.315429    0.457273   -1.713222
     20          1           0        1.975167    2.062782   -1.374127
     21          1           0        3.811882    0.390270   -1.804687
     22          1           0        3.907219    1.094764   -0.195774
     23          1           0        2.782618   -1.664660   -0.901656
     24          1           0        4.279061   -1.330941   -0.028044
     25          1           0        2.379262   -2.000141    1.485858
     26          1           0        2.974255   -0.380051    1.869591
     27          1           0       -1.301060   -1.891541   -1.023542
 ---------------------------------------------------------------------

 Alpha  occ. eigenvalues --  -20.59236 -20.58906 -15.84723 -15.64137 -15.56108
 Alpha  occ. eigenvalues --  -11.35022 -11.29624 -11.29554 -11.28621 -11.27133
 Alpha  occ. eigenvalues --  -11.23729 -11.23209 -11.22694 -11.22091  -1.57130
 Alpha  occ. eigenvalues --   -1.36727  -1.30973  -1.23062  -1.14697  -1.09815
 Alpha  occ. eigenvalues --   -1.02802  -1.01308  -0.94479  -0.89678  -0.85564
 Alpha  occ. eigenvalues --   -0.82444  -0.78609  -0.77410  -0.75199  -0.72020
 Alpha  occ. eigenvalues --   -0.69778  -0.69445  -0.67820  -0.64887  -0.63776
 Alpha  occ. eigenvalues --   -0.62367  -0.60276  -0.57699  -0.57001  -0.55074
 Alpha  occ. eigenvalues --   -0.54581  -0.50762  -0.50106  -0.48653  -0.48101
 Alpha  occ. eigenvalues --   -0.47377  -0.46147  -0.46044  -0.43683  -0.41696
 Alpha  occ. eigenvalues --   -0.39844  -0.33825
 Alpha virt. eigenvalues --    0.07469   0.11809   0.17307   0.21848   0.24112
 Alpha virt. eigenvalues --    0.25662   0.27132   0.28692   0.29044   0.29635
 Alpha virt. eigenvalues --    0.30683   0.31801   0.32035   0.32766   0.33950

 Mulliken charges:
               1
     1  O   -0.467327
     2  N    0.491617
     3  O   -0.504098
     4  C    0.000236
     5  C    0.189156
     6  N   -0.780303
     7  C    0.060156
     8  H    0.180003
     9  C   -0.301392
    10  C   -0.327952
    11  C   -0.321439
    12  C   -0.306692
    13  C   -0.037057
    14  H    0.189951
    15  N   -0.511193
    16  C    0.119957
    17  H    0.295199
    18  H    0.404868
    19  H    0.190237
    20  H    0.161351
    21  H    0.174654
    22  H    0.149344
    23  H    0.199906
    24  H    0.164529
    25  H    0.187055
    26  H    0.150343
    27  H    0.248890
 Sum of Mulliken charges =  -0.00000

 Dipole moment (field-independent basis, Debye):
    X=              5.4149    Y=              4.7989    Z=              1.2818  Tot=              7.3480
 Quadrupole moment (field-independent basis, Debye-Ang):
   XX=           -106.1241   YY=            -79.2260   ZZ=            -81.5031
   XY=             -1.7733   XZ=             -0.1295   YZ=              1.8478

 Normal termination of Gaussian 16 at Sun Jul  2 05:33:46 2023.
