 Gaussian 16, Revision C.02,
 Gaussian 16:  ES64L-G16RevC.02  7-Dec-2021

 ---------------------------------------------------------
 #MP2/6-31G* SCF=Tight Opt=(ModRedun, MaxCycle=20 ) NoSymm
 ---------------------------------------------------------

 --------
 MolName:
 --------
 Symbolic Z-matrix:
 Charge =  0 Multiplicity = 1

 SCF Done:  E(RHF) =  -661.282087543     A.U. after   16 cycles
 E2 =    -0.2037193013D+01 EUMP2 =    -0.66331928055532D+03
 SCF Done:  E(RHF) =  -661.299011801     A.U. after   14 cycles
 E2 =    -0.2032738871D+01 EUMP2 =    -0.66333175067262D+03
 SCF Done:  E(RHF) =  -661.299857919     A.U. after   14 cycles
 E2 =    -0.2033513064D+01 EUMP2 =    -0.66333337098307D+03
 SCF Done:  E(RHF) =  -661.292610617     A.U. after   17 cycles
 E2 =    -0.2035665664D+01 EUMP2 =    -0.66332827628093D+03
 SCF Done:  E(RHF) =  -661.298505237     A.U. after   14 cycles
 E2 =    -0.2035100282D+01 EUMP2 =    -0.66333360551848D+03
 SCF Done:  E(RHF) =  -661.299251903     A.U. after   13 cycles
 E2 =    -0.2034683306D+01 EUMP2 =    -0.66333393520842D+03
 SCF Done:  E(RHF) =  -661.299635353     A.U. after   11 cycles
 E2 =    -0.2034312144D+01 EUMP2 =    -0.66333394749740D+03
 SCF Done:  E(RHF) =  -661.299704565     A.U. after   10 cycles
 E2 =    -0.2034245106D+01 EUMP2 =    -0.66333394967074D+03
 Optimization completed.
    -- Stationary point found.

                          Input orientation:
 ---------------------------------------------------------------------
 Center     Atomic      Atomic             Coordinates (Angstroms)
 Number     Number       Type             X           Y           Z
 ---------------------------------------------------------------------
      1          8           0       -3.514158   -1.368573   -0.428510
      2          7           0       -3.120071   -0.216131   -0.163953
      3          8           0       -3.886221    0.756671   -0.022387
      4          6           0       -1.687917   -0.028904    0.005623
      5          6           0       -1.293585    1.264498    0.236264
      6          7           0       -0.056768    1.733115    0.460409
      7          6           0        1.210419    1.018472    0.398949
      8          1           0        1.866974    1.545083    1.107416
      9          6           0        1.885366    1.042240   -0.971168
     10          6           0        3.287963    0.437017   -0.841421
     11          6           0        3.255018   -0.964294   -0.225608
     12          6           0        2.487393   -0.987092    1.097874
     13          6           0        1.071759   -0.435093    0.894281
     14          1           0        0.515324   -0.424251    1.844068
     15          7           0        0.409243   -1.325892   -0.053592
     16          6           0       -0.843268   -1.159160   -0.330780
     17          1           0       -2.084378    2.005592    0.314560
     18          1           0        0.008193    2.735488    0.596454
     19          1           0        1.277078    0.468816   -1.679055
     20          1           0        1.942145    2.073150   -1.342797
     21          1           0        3.771539    0.408131   -1.824553
     22          1           0        3.899483    1.099174   -0.212123
     23          1           0        2.764010   -1.656180   -0.917135
     24          1           0        4.278236   -1.327450   -0.073044
     25          1           0        2.412274   -2.012185    1.475122
     26          1           0        3.011647   -0.393689    1.859718
     27          1           0       -1.308679   -1.927575   -0.947644
 ---------------------------------------------------------------------

 Alpha  occ. eigenvalues --  -20.59232 -20.58900 -15.84726 -15.64192 -15.55994
 Alpha  occ. eigenvalues --  -11.35051 -11.29607 -11.29555 -11.28647 -11.27087
 Alpha  occ. eigenvalues --  -11.23864 -11.23270 -11.22649 -11.22099  -1.57128
 Alpha  occ. eigenvalues --   -1.36710  -1.31004  -1.22992  -1.14732  -1.09843
 Alpha  occ. eigenvalues --   -1.02811  -1.01353  -0.94474  -0.89695  -0.85645
 Alpha  occ. eigenvalues --   -0.82423  -0.78614  -0.77417  -0.75172  -0.72013
 Alpha  occ. eigenvalues --   -0.69718  -0.69479  -0.67866  -0.64843  -0.63812
 Alpha  occ. eigenvalues --   -0.62447  -0.60194  -0.57767  -0.56951  -0.55069
 Alpha  occ. eigenvalues --   -0.54637  -0.50776  -0.50203  -0.48670  -0.48123
 Alpha  occ. eigenvalues --   -0.47372  -0.46204  -0.46010  -0.43686  -0.41745
 Alpha  occ. eigenvalues --   -0.39692  -0.33785
 Alpha virt. eigenvalues --    0.07439   0.11760   0.17347   0.21881   0.24073
 Alpha virt. eigenvalues --    0.25529   0.27286   0.28601   0.29064   0.29550
 Alpha virt. eigenvalues --    0.30728   0.31778   0.32099   0.32809   0.33835

 Mulliken charges:
               1
     1  O   -0.467344
     2  N    0.491926
     3  O   -0.503483
     4  C    0.001172
     5  C    0.189602
     6  N   -0.775751
     7  C    0.054258
     8  H    0.182086
     9  C   -0.303679
    10  C   -0.327364
    11  C   -0.321881
    12  C   -0.306324
    13  C   -0.033090
    14  H    0.193061
    15  N   -0.516063
    16  C    0.117022
    17  H    0.294800
    18  H    0.403920
    19  H    0.189965
    20  H    0.159735
    21  H    0.174779
    22  H    0.149898
    23  H    0.199883
    24  H    0.164688
    25  H    0.187048
    26  H    0.150332
    27  H    0.250804
 Sum of Mulliken charges =  -0.00000

 Dipole moment (field-independent basis, Debye):
    X=              5.4559    Y=              4.7933    Z=              1.1563  Tot=              7.3539
 Quadrupole moment (field-independent basis, Debye-Ang):
   XX=           -106.1053   YY=            -78.9784   ZZ=            -81.8575
   XY=             -1.4926   XZ=             -0.5219   YZ=              1.2031

 Normal termination of Gaussian 16 at Sun Jul  2 05:51:25 2023.
