 Gaussian 16, Revision C.02,
 Gaussian 16:  ES64L-G16RevC.02  7-Dec-2021

 ---------------------------------------------------------
 #MP2/6-31G* SCF=Tight Opt=(ModRedun, MaxCycle=20 ) NoSymm
 ---------------------------------------------------------

 --------
 MolName:
 --------
 Symbolic Z-matrix:
 Charge =  0 Multiplicity = 1

 SCF Done:  E(RHF) =  -661.279026038     A.U. after   16 cycles
 E2 =    -0.2037537121D+01 EUMP2 =    -0.66331656315851D+03
 SCF Done:  E(RHF) =  -661.296206253     A.U. after   14 cycles
 E2 =    -0.2033400329D+01 EUMP2 =    -0.66332960658288D+03
 SCF Done:  E(RHF) =  -661.296957883     A.U. after   15 cycles
 E2 =    -0.2034285941D+01 EUMP2 =    -0.66333124382425D+03
 SCF Done:  E(RHF) =  -661.285018481     A.U. after   17 cycles
 E2 =    -0.2036857028D+01 EUMP2 =    -0.66332187550858D+03
 SCF Done:  E(RHF) =  -661.296289943     A.U. after   14 cycles
 E2 =    -0.2035380428D+01 EUMP2 =    -0.66333167037081D+03
 SCF Done:  E(RHF) =  -661.296580162     A.U. after   12 cycles
 E2 =    -0.2035189661D+01 EUMP2 =    -0.66333176982259D+03
 SCF Done:  E(RHF) =  -661.296889589     A.U. after   11 cycles
 E2 =    -0.2034887897D+01 EUMP2 =    -0.66333177748588D+03
 SCF Done:  E(RHF) =  -661.296952687     A.U. after   10 cycles
 E2 =    -0.2034825450D+01 EUMP2 =    -0.66333177813753D+03
 Optimization completed.
    -- Stationary point found.

                          Input orientation:
 ---------------------------------------------------------------------
 Center     Atomic      Atomic             Coordinates (Angstroms)
 Number     Number       Type             X           Y           Z
 ---------------------------------------------------------------------
      1          8           0       -3.518125   -1.347600   -0.482253
      2          7           0       -3.116077   -0.199013   -0.213804
      3          8           0       -3.870912    0.787455   -0.113241
      4          6           0       -1.688221   -0.031649    0.016553
      5          6           0       -1.278868    1.265050    0.197051
      6          7           0       -0.058073    1.715918    0.535651
      7          6           0        1.215952    1.014802    0.437798
      8          1           0        1.881772    1.540195    1.137643
      9          6           0        1.858243    1.049157   -0.946981
     10          6           0        3.264354    0.445317   -0.853821
     11          6           0        3.247337   -0.960224   -0.246906
     12          6           0        2.510581   -0.993756    1.093748
     13          6           0        1.089645   -0.442994    0.925390
     14          1           0        0.554646   -0.441055    1.886547
     15          7           0        0.409793   -1.332955   -0.011448
     16          6           0       -0.848050   -1.181028   -0.270296
     17          1           0       -2.061637    2.018783    0.211731
     18          1           0        0.014784    2.726301    0.596637
     19          1           0        1.234264    0.478670   -1.643957
     20          1           0        1.905127    2.082403   -1.314104
     21          1           0        3.725210    0.423904   -1.848033
     22          1           0        3.889054    1.104260   -0.234241
     23          1           0        2.741365   -1.648252   -0.931660
     24          1           0        4.274345   -1.322896   -0.121015
     25          1           0        2.446372   -2.021617    1.465367
     26          1           0        3.050797   -0.403971    1.847212
     27          1           0       -1.316657   -1.965165   -0.864556
 ---------------------------------------------------------------------

 Alpha  occ. eigenvalues --  -20.59336 -20.59001 -15.84807 -15.64097 -15.55964
 Alpha  occ. eigenvalues --  -11.35026 -11.29619 -11.29553 -11.28777 -11.27052
 Alpha  occ. eigenvalues --  -11.23986 -11.23329 -11.22611 -11.22116  -1.57220
 Alpha  occ. eigenvalues --   -1.36809  -1.30908  -1.22932  -1.14757  -1.09870
 Alpha  occ. eigenvalues --   -1.02780  -1.01371  -0.94444  -0.89717  -0.85687
 Alpha  occ. eigenvalues --   -0.82391  -0.78548  -0.77439  -0.75064  -0.71907
 Alpha  occ. eigenvalues --   -0.69741  -0.69572  -0.67905  -0.64789  -0.63848
 Alpha  occ. eigenvalues --   -0.62500  -0.60102  -0.57769  -0.56898  -0.55077
 Alpha  occ. eigenvalues --   -0.54660  -0.50774  -0.50303  -0.48745  -0.48164
 Alpha  occ. eigenvalues --   -0.47426  -0.46294  -0.45962  -0.43753  -0.41825
 Alpha  occ. eigenvalues --   -0.39559  -0.33846
 Alpha virt. eigenvalues --    0.07199   0.11629   0.17414   0.21909   0.24005
 Alpha virt. eigenvalues --    0.25392   0.27332   0.28467   0.29064   0.29526
 Alpha virt. eigenvalues --    0.30740   0.31757   0.32175   0.32820   0.33760

 Mulliken charges:
               1
     1  O   -0.466629
     2  N    0.492208
     3  O   -0.500993
     4  C    0.010375
     5  C    0.177338
     6  N   -0.757976
     7  C    0.040374
     8  H    0.184244
     9  C   -0.305872
    10  C   -0.326813
    11  C   -0.322357
    12  C   -0.305808
    13  C   -0.028954
    14  H    0.196054
    15  N   -0.518938
    16  C    0.112750
    17  H    0.293308
    18  H    0.399911
    19  H    0.189408
    20  H    0.158798
    21  H    0.174899
    22  H    0.150514
    23  H    0.199636
    24  H    0.164893
    25  H    0.186897
    26  H    0.150294
    27  H    0.252439
 Sum of Mulliken charges =  -0.00000

 Dipole moment (field-independent basis, Debye):
    X=              5.4558    Y=              4.6935    Z=              1.0553  Tot=              7.2738
 Quadrupole moment (field-independent basis, Debye-Ang):
   XX=           -105.8366   YY=            -78.9868   ZZ=            -82.2007
   XY=             -1.1154   XZ=             -0.9555   YZ=              0.6669

 Normal termination of Gaussian 16 at Sun Jul  2 06:10:04 2023.
