 Gaussian 16, Revision C.02,
 Gaussian 16:  ES64L-G16RevC.02  7-Dec-2021

 ---------------------------------------------------------
 #MP2/6-31G* SCF=Tight Opt=(ModRedun, MaxCycle=20 ) NoSymm
 ---------------------------------------------------------

 --------
 MolName:
 --------
 Symbolic Z-matrix:
 Charge =  0 Multiplicity = 1

 SCF Done:  E(RHF) =  -661.271257675     A.U. after   16 cycles
 E2 =    -0.2038423931D+01 EUMP2 =    -0.66330968160563D+03
 SCF Done:  E(RHF) =  -661.288865690     A.U. after   15 cycles
 E2 =    -0.2034068199D+01 EUMP2 =    -0.66332293388902D+03
 SCF Done:  E(RHF) =  -661.288454015     A.U. after   16 cycles
 E2 =    -0.2035383915D+01 EUMP2 =    -0.66332383792959D+03
 SCF Done:  E(RHF) =  -661.288438799     A.U. after   17 cycles
 E2 =    -0.2037090178D+01 EUMP2 =    -0.66332552897782D+03
 SCF Done:  E(RHF) =  -661.292924128     A.U. after   15 cycles
 E2 =    -0.2036861997D+01 EUMP2 =    -0.66332978612453D+03
 SCF Done:  E(RHF) =  -661.294824109     A.U. after   15 cycles
 E2 =    -0.2036180931D+01 EUMP2 =    -0.66333100504087D+03
 SCF Done:  E(RHF) =  -661.295369938     A.U. after   14 cycles
 E2 =    -0.2036111068D+01 EUMP2 =    -0.66333148100523D+03
 SCF Done:  E(RHF) =  -661.295389459     A.U. after   12 cycles
 E2 =    -0.2036125460D+01 EUMP2 =    -0.66333151491914D+03
 SCF Done:  E(RHF) =  -661.295370927     A.U. after   10 cycles
 E2 =    -0.2036146008D+01 EUMP2 =    -0.66333151693513D+03
 SCF Done:  E(RHF) =  -661.295361290     A.U. after    9 cycles
 E2 =    -0.2036156127D+01 EUMP2 =    -0.66333151741716D+03
 Optimization completed.
    -- Stationary point found.

                          Input orientation:
 ---------------------------------------------------------------------
 Center     Atomic      Atomic             Coordinates (Angstroms)
 Number     Number       Type             X           Y           Z
 ---------------------------------------------------------------------
      1          8           0       -3.474424   -1.444605   -0.243539
      2          7           0       -3.116022   -0.270536   -0.025769
      3          8           0       -3.905915    0.663225    0.210783
      4          6           0       -1.687993   -0.006437   -0.050112
      5          6           0       -1.299432    1.240627    0.355053
      6          7           0       -0.066184    1.781338    0.238121
      7          6           0        1.195675    1.037636    0.279971
      8          1           0        1.822951    1.571937    1.010542
      9          6           0        1.955987    1.023528   -1.043179
     10          6           0        3.342571    0.412711   -0.808859
     11          6           0        3.260337   -0.972934   -0.162595
     12          6           0        2.409592   -0.959846    1.109825
     13          6           0        1.016237   -0.398004    0.807760
     14          1           0        0.398473   -0.355628    1.720268
     15          7           0        0.401761   -1.295301   -0.168583
     16          6           0       -0.832641   -1.087839   -0.505617
     17          1           0       -2.087567    1.934483    0.635771
     18          1           0       -0.002000    2.721355    0.613983
     19          1           0        1.391128    0.439771   -1.777316
     20          1           0        2.043083    2.045776   -1.431101
     21          1           0        3.888460    0.355719   -1.757526
     22          1           0        3.918398    1.086077   -0.157983
     23          1           0        2.810252   -1.678575   -0.867720
     24          1           0        4.268850   -1.338169    0.064974
     25          1           0        2.300634   -1.975726    1.504149
     26          1           0        2.891249   -0.355364    1.890785
     27          1           0       -1.282444   -1.812218   -1.184087
 ---------------------------------------------------------------------

 Alpha  occ. eigenvalues --  -20.59511 -20.59192 -15.84908 -15.63601 -15.56635
 Alpha  occ. eigenvalues --  -11.34816 -11.29752 -11.29543 -11.28865 -11.27283
 Alpha  occ. eigenvalues --  -11.23487 -11.23113 -11.22808 -11.22111  -1.57335
 Alpha  occ. eigenvalues --   -1.36966  -1.30626  -1.23242  -1.14688  -1.09822
 Alpha  occ. eigenvalues --   -1.02715  -1.01200  -0.94467  -0.89691  -0.85396
 Alpha  occ. eigenvalues --   -0.82451  -0.78387  -0.77488  -0.75056  -0.71744
 Alpha  occ. eigenvalues --   -0.70081  -0.69508  -0.67768  -0.64984  -0.63641
 Alpha  occ. eigenvalues --   -0.62190  -0.60507  -0.57455  -0.57061  -0.55030
 Alpha  occ. eigenvalues --   -0.54493  -0.50747  -0.49890  -0.48818  -0.48109
 Alpha  occ. eigenvalues --   -0.47515  -0.46211  -0.46010  -0.43803  -0.41747
 Alpha  occ. eigenvalues --   -0.40296  -0.34215
 Alpha virt. eigenvalues --    0.06908   0.11653   0.17413   0.21727   0.23940
 Alpha virt. eigenvalues --    0.25521   0.26851   0.28576   0.29107   0.29844
 Alpha virt. eigenvalues --    0.30432   0.31804   0.32016   0.32628   0.34154

 Mulliken charges:
               1
     1  O   -0.465305
     2  N    0.487440
     3  O   -0.497821
     4  C    0.030042
     5  C    0.148263
     6  N   -0.746874
     7  C    0.047782
     8  H    0.176746
     9  C   -0.297509
    10  C   -0.329092
    11  C   -0.320744
    12  C   -0.306537
    13  C   -0.046894
    14  H    0.185042
    15  N   -0.495157
    16  C    0.118315
    17  H    0.291781
    18  H    0.396825
    19  H    0.190058
    20  H    0.164615
    21  H    0.174490
    22  H    0.148814
    23  H    0.199436
    24  H    0.164462
    25  H    0.186840
    26  H    0.150842
    27  H    0.244138
 Sum of Mulliken charges =  -0.00000

 Dipole moment (field-independent basis, Debye):
    X=              5.2614    Y=              4.5539    Z=              1.4215  Tot=              7.1022
 Quadrupole moment (field-independent basis, Debye-Ang):
   XX=           -105.5723   YY=            -80.3456   ZZ=            -80.9355
   XY=             -2.0837   XZ=              0.7470   YZ=              2.9359

 Normal termination of Gaussian 16 at Sat Jul  1 01:11:04 2023.
