 Gaussian 16, Revision C.02,
 Gaussian 16:  ES64L-G16RevC.02  7-Dec-2021

 ---------------------------------------------------------
 #MP2/6-31G* SCF=Tight Opt=(ModRedun, MaxCycle=20 ) NoSymm
 ---------------------------------------------------------

 --------
 MolName:
 --------
 Symbolic Z-matrix:
 Charge =  0 Multiplicity = 1

 SCF Done:  E(RHF) =  -661.277623591     A.U. after   16 cycles
 E2 =    -0.2037685625D+01 EUMP2 =    -0.66331530921632D+03
 SCF Done:  E(RHF) =  -661.295651831     A.U. after   15 cycles
 E2 =    -0.2033276610D+01 EUMP2 =    -0.66332892844034D+03
 SCF Done:  E(RHF) =  -661.289959564     A.U. after   17 cycles
 E2 =    -0.2034984106D+01 EUMP2 =    -0.66332494366982D+03
 SCF Done:  E(RHF) =  -661.290555745     A.U. after   15 cycles
 E2 =    -0.2036394879D+01 EUMP2 =    -0.66332695062357D+03
 SCF Done:  E(RHF) =  -661.296336435     A.U. after   11 cycles
 E2 =    -0.2034327456D+01 EUMP2 =    -0.66333066389161D+03
 SCF Done:  E(RHF) =  -661.296223383     A.U. after   13 cycles
 E2 =    -0.2035141850D+01 EUMP2 =    -0.66333136523270D+03
 SCF Done:  E(RHF) =  -661.296341261     A.U. after   13 cycles
 E2 =    -0.2035118479D+01 EUMP2 =    -0.66333145973964D+03
 SCF Done:  E(RHF) =  -661.296641501     A.U. after   11 cycles
 E2 =    -0.2034836341D+01 EUMP2 =    -0.66333147784211D+03
 SCF Done:  E(RHF) =  -661.296655051     A.U. after   11 cycles
 E2 =    -0.2034825978D+01 EUMP2 =    -0.66333148102879D+03
 SCF Done:  E(RHF) =  -661.296624536     A.U. after    9 cycles
 E2 =    -0.2034857024D+01 EUMP2 =    -0.66333148156012D+03
 Optimization completed.
    -- Stationary point found.

                          Input orientation:
 ---------------------------------------------------------------------
 Center     Atomic      Atomic             Coordinates (Angstroms)
 Number     Number       Type             X           Y           Z
 ---------------------------------------------------------------------
      1          8           0       -3.504608   -1.374301   -0.404360
      2          7           0       -3.116502   -0.247291   -0.039462
      3          8           0       -3.889658    0.689566    0.242045
      4          6           0       -1.682977   -0.044857    0.090001
      5          6           0       -1.307039    1.263754    0.269983
      6          7           0       -0.061833    1.744502    0.395092
      7          6           0        1.196218    1.009556    0.373025
      8          1           0        1.842458    1.529228    1.097423
      9          6           0        1.907327    1.040185   -0.979334
     10          6           0        3.308104    0.439443   -0.814521
     11          6           0        3.263466   -0.963905   -0.204279
     12          6           0        2.460985   -0.992966    1.098253
     13          6           0        1.050085   -0.443154    0.862718
     14          1           0        0.469986   -0.438011    1.799644
     15          7           0        0.409900   -1.323769   -0.114500
     16          6           0       -0.836444   -1.120965   -0.397561
     17          1           0       -2.082044    2.021017    0.189853
     18          1           0        0.017120    2.753758    0.449175
     19          1           0        1.320487    0.469549   -1.706773
     20          1           0        1.972725    2.073326   -1.344184
     21          1           0        3.817518    0.415310   -1.784651
     22          1           0        3.900504    1.101503   -0.167116
     23          1           0        2.793879   -1.655019   -0.911001
     24          1           0        4.283529   -1.323717   -0.024723
     25          1           0        2.377086   -2.019947    1.468941
     26          1           0        2.964340   -0.403264    1.876748
     27          1           0       -1.314622   -1.836532   -1.065465
 ---------------------------------------------------------------------

 Alpha  occ. eigenvalues --  -20.59079 -20.58765 -15.84547 -15.64343 -15.56077
 Alpha  occ. eigenvalues --  -11.35304 -11.29658 -11.29601 -11.28507 -11.27144
 Alpha  occ. eigenvalues --  -11.23884 -11.23285 -11.22724 -11.22121  -1.56959
 Alpha  occ. eigenvalues --   -1.36557  -1.31168  -1.23113  -1.14735  -1.09830
 Alpha  occ. eigenvalues --   -1.02858  -1.01346  -0.94410  -0.89572  -0.85729
 Alpha  occ. eigenvalues --   -0.82401  -0.78497  -0.77398  -0.75284  -0.72027
 Alpha  occ. eigenvalues --   -0.69535  -0.69462  -0.67823  -0.64895  -0.63705
 Alpha  occ. eigenvalues --   -0.62965  -0.60221  -0.57404  -0.57107  -0.55133
 Alpha  occ. eigenvalues --   -0.54709  -0.50849  -0.50020  -0.48571  -0.48063
 Alpha  occ. eigenvalues --   -0.47274  -0.46214  -0.46079  -0.43560  -0.41694
 Alpha  occ. eigenvalues --   -0.40076  -0.33735
 Alpha virt. eigenvalues --    0.07516   0.12001   0.17317   0.21650   0.23329
 Alpha virt. eigenvalues --    0.24880   0.27356   0.28385   0.28977   0.29760
 Alpha virt. eigenvalues --    0.30672   0.31769   0.32177   0.32691   0.33787

 Mulliken charges:
               1
     1  O   -0.469941
     2  N    0.487267
     3  O   -0.500624
     4  C    0.000419
     5  C    0.198868
     6  N   -0.775228
     7  C    0.058667
     8  H    0.181217
     9  C   -0.303534
    10  C   -0.327405
    11  C   -0.321054
    12  C   -0.307124
    13  C   -0.039877
    14  H    0.193613
    15  N   -0.508982
    16  C    0.106743
    17  H    0.292036
    18  H    0.404581
    19  H    0.190913
    20  H    0.157521
    21  H    0.174648
    22  H    0.150035
    23  H    0.200256
    24  H    0.164559
    25  H    0.187265
    26  H    0.151554
    27  H    0.253610
 Sum of Mulliken charges =  -0.00000

 Dipole moment (field-independent basis, Debye):
    X=              5.4970    Y=              4.9295    Z=              0.6879  Tot=              7.4155
 Quadrupole moment (field-independent basis, Debye-Ang):
   XX=           -106.3830   YY=            -78.6805   ZZ=            -82.1533
   XY=             -2.0347   XZ=              1.1946   YZ=              0.0842

 Normal termination of Gaussian 16 at Sun Jul  2 22:59:21 2023.
