 Gaussian 16, Revision C.02,
 Gaussian 16:  ES64L-G16RevC.02  7-Dec-2021

 ---------------------------------------------------------
 #MP2/6-31G* SCF=Tight Opt=(ModRedun, MaxCycle=20 ) NoSymm
 ---------------------------------------------------------

 --------
 MolName:
 --------
 Symbolic Z-matrix:
 Charge =  0 Multiplicity = 1

 SCF Done:  E(RHF) =  -661.281605953     A.U. after   16 cycles
 E2 =    -0.2037269168D+01 EUMP2 =    -0.66331887512161D+03
 SCF Done:  E(RHF) =  -661.298821349     A.U. after   15 cycles
 E2 =    -0.2032725578D+01 EUMP2 =    -0.66333154692703D+03
 SCF Done:  E(RHF) =  -661.296442059     A.U. after   15 cycles
 E2 =    -0.2033956717D+01 EUMP2 =    -0.66333039877626D+03
 SCF Done:  E(RHF) =  -661.290498430     A.U. after   16 cycles
 E2 =    -0.2036345156D+01 EUMP2 =    -0.66332684358609D+03
 SCF Done:  E(RHF) =  -661.289175846     A.U. after   15 cycles
 E2 =    -0.2036426735D+01 EUMP2 =    -0.66332560258161D+03
 SCF Done:  E(RHF) =  -661.298873427     A.U. after   11 cycles
 E2 =    -0.2033381734D+01 EUMP2 =    -0.66333225516048D+03
 SCF Done:  E(RHF) =  -661.298958365     A.U. after   14 cycles
 E2 =    -0.2034671177D+01 EUMP2 =    -0.66333362954191D+03
 SCF Done:  E(RHF) =  -661.299190743     A.U. after   12 cycles
 E2 =    -0.2034624815D+01 EUMP2 =    -0.66333381555840D+03
 SCF Done:  E(RHF) =  -661.299485186     A.U. after   12 cycles
 E2 =    -0.2034376702D+01 EUMP2 =    -0.66333386188721D+03
 SCF Done:  E(RHF) =  -661.299471459     A.U. after   11 cycles
 E2 =    -0.2034398804D+01 EUMP2 =    -0.66333387026335D+03
 SCF Done:  E(RHF) =  -661.299462588     A.U. after   10 cycles
 E2 =    -0.2034408639D+01 EUMP2 =    -0.66333387122733D+03
 Optimization completed.
    -- Stationary point found.

                          Input orientation:
 ---------------------------------------------------------------------
 Center     Atomic      Atomic             Coordinates (Angstroms)
 Number     Number       Type             X           Y           Z
 ---------------------------------------------------------------------
      1          8           0       -3.505913   -1.383016   -0.394589
      2          7           0       -3.120383   -0.240008   -0.080333
      3          8           0       -3.895483    0.708643    0.150394
      4          6           0       -1.686670   -0.035384    0.043181
      5          6           0       -1.303831    1.261789    0.273333
      6          7           0       -0.059159    1.746443    0.390915
      7          6           0        1.201361    1.016754    0.365901
      8          1           0        1.848559    1.541579    1.085365
      9          6           0        1.908420    1.036911   -0.988429
     10          6           0        3.308030    0.433297   -0.824059
     11          6           0        3.261880   -0.966144   -0.204935
     12          6           0        2.463441   -0.985309    1.100318
     13          6           0        1.053126   -0.433554    0.864635
     14          1           0        0.475345   -0.419660    1.802691
     15          7           0        0.409224   -1.320771   -0.101452
     16          6           0       -0.837691   -1.129927   -0.390767
     17          1           0       -2.092891    2.008060    0.307588
     18          1           0        0.009549    2.747752    0.531196
     19          1           0        1.317674    0.462496   -1.709837
     20          1           0        1.974060    2.067285   -1.360284
     21          1           0        3.814521    0.401716   -1.795529
     22          1           0        3.904296    1.097816   -0.182650
     23          1           0        2.788086   -1.660478   -0.905802
     24          1           0        4.281566   -1.327684   -0.026626
     25          1           0        2.378842   -2.009608    1.478148
     26          1           0        2.970348   -0.391132    1.873163
     27          1           0       -1.306286   -1.864865   -1.044533
 ---------------------------------------------------------------------

 Alpha  occ. eigenvalues --  -20.59172 -20.58842 -15.84660 -15.64233 -15.56091
 Alpha  occ. eigenvalues --  -11.35124 -11.29634 -11.29565 -11.28570 -11.27131
 Alpha  occ. eigenvalues --  -11.23797 -11.23241 -11.22705 -11.22102  -1.57053
 Alpha  occ. eigenvalues --   -1.36646  -1.31066  -1.23083  -1.14714  -1.09823
 Alpha  occ. eigenvalues --   -1.02826  -1.01326  -0.94451  -0.89637  -0.85644
 Alpha  occ. eigenvalues --   -0.82421  -0.78575  -0.77399  -0.75233  -0.72027
 Alpha  occ. eigenvalues --   -0.69659  -0.69467  -0.67833  -0.64896  -0.63732
 Alpha  occ. eigenvalues --   -0.62645  -0.60220  -0.57569  -0.57051  -0.55098
 Alpha  occ. eigenvalues --   -0.54643  -0.50807  -0.50062  -0.48616  -0.48081
 Alpha  occ. eigenvalues --   -0.47334  -0.46179  -0.46060  -0.43635  -0.41666
 Alpha  occ. eigenvalues --   -0.39978  -0.33784
 Alpha virt. eigenvalues --    0.07519   0.11918   0.17336   0.21794   0.23799
 Alpha virt. eigenvalues --    0.25224   0.27288   0.28564   0.29016   0.29700
 Alpha virt. eigenvalues --    0.30701   0.31787   0.32116   0.32739   0.33865

 Mulliken charges:
               1
     1  O   -0.468190
     2  N    0.489529
     3  O   -0.502924
     4  C    0.000022
     5  C    0.193315
     6  N   -0.779196
     7  C    0.060168
     8  H    0.180507
     9  C   -0.302334
    10  C   -0.327691
    11  C   -0.321236
    12  C   -0.306921
    13  C   -0.038264
    14  H    0.191767
    15  N   -0.510357
    16  C    0.113844
    17  H    0.294889
    18  H    0.405007
    19  H    0.190529
    20  H    0.159341
    21  H    0.174619
    22  H    0.149642
    23  H    0.200073
    24  H    0.164520
    25  H    0.187115
    26  H    0.150942
    27  H    0.251281
 Sum of Mulliken charges =  -0.00000

 Dipole moment (field-independent basis, Debye):
    X=              5.4524    Y=              4.8736    Z=              0.9881  Tot=              7.3795
 Quadrupole moment (field-independent basis, Debye-Ang):
   XX=           -106.2680   YY=            -78.8869   ZZ=            -81.8527
   XY=             -1.9096   XZ=              0.5091   YZ=              0.9525

 Normal termination of Gaussian 16 at Sun Jul  2 22:37:04 2023.
