 Gaussian 16, Revision C.02,
 Gaussian 16:  ES64L-G16RevC.02  7-Dec-2021

 ---------------------------------------------------------
 #MP2/6-31G* SCF=Tight Opt=(ModRedun, MaxCycle=20 ) NoSymm
 ---------------------------------------------------------

 --------
 MolName:
 --------
 Symbolic Z-matrix:
 Charge =  0 Multiplicity = 1

 SCF Done:  E(RHF) =  -661.281874296     A.U. after   16 cycles
 E2 =    -0.2037209989D+01 EUMP2 =    -0.66331908428545D+03
 SCF Done:  E(RHF) =  -661.298873713     A.U. after   14 cycles
 E2 =    -0.2032604079D+01 EUMP2 =    -0.66333147779243D+03
 SCF Done:  E(RHF) =  -661.299700039     A.U. after   15 cycles
 E2 =    -0.2033396853D+01 EUMP2 =    -0.66333309689213D+03
 SCF Done:  E(RHF) =  -661.288545141     A.U. after   17 cycles
 E2 =    -0.2035888856D+01 EUMP2 =    -0.66332443399682D+03
 SCF Done:  E(RHF) =  -661.299651218     A.U. after   14 cycles
 E2 =    -0.2034737232D+01 EUMP2 =    -0.66333438845029D+03
 SCF Done:  E(RHF) =  -661.299825029     A.U. after   13 cycles
 E2 =    -0.2034747817D+01 EUMP2 =    -0.66333457284649D+03
 SCF Done:  E(RHF) =  -661.300390656     A.U. after   12 cycles
 E2 =    -0.2034249077D+01 EUMP2 =    -0.66333463973256D+03
 SCF Done:  E(RHF) =  -661.300400569     A.U. after   11 cycles
 E2 =    -0.2034248104D+01 EUMP2 =    -0.66333464867275D+03
 SCF Done:  E(RHF) =  -661.300375211     A.U. after   10 cycles
 E2 =    -0.2034274070D+01 EUMP2 =    -0.66333464928134D+03
 Optimization completed.
    -- Stationary point found.

                          Input orientation:
 ---------------------------------------------------------------------
 Center     Atomic      Atomic             Coordinates (Angstroms)
 Number     Number       Type             X           Y           Z
 ---------------------------------------------------------------------
      1          8           0       -3.506195   -1.390670   -0.370765
      2          7           0       -3.120960   -0.232435   -0.118229
      3          8           0       -3.895455    0.728461    0.055532
      4          6           0       -1.686562   -0.023680   -0.009583
      5          6           0       -1.301383    1.260801    0.275357
      6          7           0       -0.057150    1.750267    0.386415
      7          6           0        1.205675    1.024055    0.359322
      8          1           0        1.853424    1.553008    1.074671
      9          6           0        1.909078    1.035170   -0.996561
     10          6           0        3.307415    0.428399   -0.832619
     11          6           0        3.259388   -0.967737   -0.206097
     12          6           0        2.464475   -0.978352    1.101431
     13          6           0        1.054793   -0.424612    0.865086
     14          1           0        0.478329   -0.403256    1.803537
     15          7           0        0.408243   -1.317800   -0.091134
     16          6           0       -0.839065   -1.137920   -0.386455
     17          1           0       -2.096121    1.987692    0.419041
     18          1           0        0.001839    2.735407    0.615656
     19          1           0        1.314794    0.457823   -1.712760
     20          1           0        1.975124    2.063112   -1.374207
     21          1           0        3.811267    0.390339   -1.805182
     22          1           0        3.907297    1.094613   -0.196383
     23          1           0        2.781648   -1.664456   -0.901934
     24          1           0        4.278538   -1.331289   -0.029058
     25          1           0        2.379063   -2.000242    1.485323
     26          1           0        2.974445   -0.380474    1.869404
     27          1           0       -1.300954   -1.893203   -1.021798
 ---------------------------------------------------------------------

 Alpha  occ. eigenvalues --  -20.59237 -20.58905 -15.84722 -15.64136 -15.56108
 Alpha  occ. eigenvalues --  -11.35017 -11.29622 -11.29556 -11.28625 -11.27133
 Alpha  occ. eigenvalues --  -11.23727 -11.23207 -11.22690 -11.22088  -1.57119
 Alpha  occ. eigenvalues --   -1.36713  -1.30978  -1.23066  -1.14703  -1.09818
 Alpha  occ. eigenvalues --   -1.02805  -1.01307  -0.94482  -0.89685  -0.85565
 Alpha  occ. eigenvalues --   -0.82448  -0.78609  -0.77412  -0.75202  -0.72021
 Alpha  occ. eigenvalues --   -0.69773  -0.69440  -0.67820  -0.64891  -0.63779
 Alpha  occ. eigenvalues --   -0.62368  -0.60281  -0.57700  -0.57000  -0.55077
 Alpha  occ. eigenvalues --   -0.54582  -0.50761  -0.50109  -0.48656  -0.48102
 Alpha  occ. eigenvalues --   -0.47373  -0.46146  -0.46044  -0.43679  -0.41696
 Alpha  occ. eigenvalues --   -0.39845  -0.33828
 Alpha virt. eigenvalues --    0.07465   0.11800   0.17308   0.21849   0.24115
 Alpha virt. eigenvalues --    0.25668   0.27134   0.28694   0.29046   0.29635
 Alpha virt. eigenvalues --    0.30684   0.31799   0.32037   0.32768   0.33951

 Mulliken charges:
               1
     1  O   -0.467258
     2  N    0.491360
     3  O   -0.504075
     4  C    0.000482
     5  C    0.188907
     6  N   -0.780282
     7  C    0.060230
     8  H    0.180075
     9  C   -0.301424
    10  C   -0.327945
    11  C   -0.321493
    12  C   -0.306649
    13  C   -0.037162
    14  H    0.189950
    15  N   -0.511212
    16  C    0.119924
    17  H    0.295275
    18  H    0.404868
    19  H    0.190191
    20  H    0.161376
    21  H    0.174646
    22  H    0.149362
    23  H    0.199940
    24  H    0.164539
    25  H    0.187061
    26  H    0.150337
    27  H    0.248975
 Sum of Mulliken charges =  -0.00000

 Dipole moment (field-independent basis, Debye):
    X=              5.4144    Y=              4.7965    Z=              1.2820  Tot=              7.3461
 Quadrupole moment (field-independent basis, Debye-Ang):
   XX=           -106.1334   YY=            -79.2233   ZZ=            -81.5014
   XY=             -1.7658   XZ=             -0.1336   YZ=              1.8567

 Normal termination of Gaussian 16 at Sun Jul  2 21:25:24 2023.
