 Gaussian 16, Revision C.02,
 Gaussian 16:  ES64L-G16RevC.02  7-Dec-2021

 ---------------------------------------------------------
 #MP2/6-31G* SCF=Tight Opt=(ModRedun, MaxCycle=20 ) NoSymm
 ---------------------------------------------------------

 --------
 MolName:
 --------
 Symbolic Z-matrix:
 Charge =  0 Multiplicity = 1

 SCF Done:  E(RHF) =  -661.278430343     A.U. after   16 cycles
 E2 =    -0.2037507386D+01 EUMP2 =    -0.66331593772896D+03
 SCF Done:  E(RHF) =  -661.295689187     A.U. after   15 cycles
 E2 =    -0.2032957752D+01 EUMP2 =    -0.66332864693885D+03
 SCF Done:  E(RHF) =  -661.293037660     A.U. after   17 cycles
 E2 =    -0.2034287402D+01 EUMP2 =    -0.66332732506148D+03
 SCF Done:  E(RHF) =  -661.293286045     A.U. after   15 cycles
 E2 =    -0.2035688998D+01 EUMP2 =    -0.66332897504322D+03
 SCF Done:  E(RHF) =  -661.297241720     A.U. after   11 cycles
 E2 =    -0.2034193318D+01 EUMP2 =    -0.66333143503745D+03
 SCF Done:  E(RHF) =  -661.298349471     A.U. after   15 cycles
 E2 =    -0.2034895544D+01 EUMP2 =    -0.66333324501468D+03
 SCF Done:  E(RHF) =  -661.299035203     A.U. after   14 cycles
 E2 =    -0.2034728063D+01 EUMP2 =    -0.66333376326556D+03
 SCF Done:  E(RHF) =  -661.299424951     A.U. after   12 cycles
 E2 =    -0.2034446161D+01 EUMP2 =    -0.66333387111165D+03
 SCF Done:  E(RHF) =  -661.299394896     A.U. after   12 cycles
 E2 =    -0.2034499724D+01 EUMP2 =    -0.66333389462009D+03
 SCF Done:  E(RHF) =  -661.299340674     A.U. after   11 cycles
 E2 =    -0.2034558053D+01 EUMP2 =    -0.66333389872721D+03
 SCF Done:  E(RHF) =  -661.299337175     A.U. after    9 cycles
 E2 =    -0.2034561722D+01 EUMP2 =    -0.66333389889754D+03
 Optimization completed.
    -- Stationary point found.

                          Input orientation:
 ---------------------------------------------------------------------
 Center     Atomic      Atomic             Coordinates (Angstroms)
 Number     Number       Type             X           Y           Z
 ---------------------------------------------------------------------
      1          8           0       -3.507238   -1.392804   -0.342431
      2          7           0       -3.118801   -0.222831   -0.157957
      3          8           0       -3.889455    0.750213   -0.046221
      4          6           0       -1.683245   -0.011216   -0.065854
      5          6           0       -1.299800    1.259726    0.275348
      6          7           0       -0.056124    1.755209    0.382594
      7          6           0        1.209239    1.031278    0.354046
      8          1           0        1.857780    1.564181    1.065205
      9          6           0        1.908507    1.033520   -1.003517
     10          6           0        3.305728    0.423859   -0.840139
     11          6           0        3.256156   -0.968893   -0.206152
     12          6           0        2.464972   -0.970995    1.103693
     13          6           0        1.055724   -0.415834    0.866355
     14          1           0        0.480016   -0.387766    1.804851
     15          7           0        0.406958   -1.315774   -0.079959
     16          6           0       -0.840897   -1.146649   -0.380667
     17          1           0       -2.093864    1.959671    0.520410
     18          1           0       -0.006404    2.717155    0.696776
     19          1           0        1.310689    0.453134   -1.714476
     20          1           0        1.974865    2.059064   -1.386933
     21          1           0        3.806841    0.379315   -1.813862
     22          1           0        3.909131    1.091947   -0.209167
     23          1           0        2.774459   -1.668145   -0.896854
     24          1           0        4.274890   -1.334282   -0.030465
     25          1           0        2.378935   -1.990508    1.493626
     26          1           0        2.977929   -0.369238    1.866718
     27          1           0       -1.296991   -1.920355   -0.997977
 ---------------------------------------------------------------------

 Alpha  occ. eigenvalues --  -20.59277 -20.58955 -15.84733 -15.64063 -15.56130
 Alpha  occ. eigenvalues --  -11.34995 -11.29628 -11.29585 -11.28681 -11.27151
 Alpha  occ. eigenvalues --  -11.23683 -11.23188 -11.22686 -11.22086  -1.57144
 Alpha  occ. eigenvalues --   -1.36748  -1.30904  -1.23056  -1.14702  -1.09819
 Alpha  occ. eigenvalues --   -1.02794  -1.01291  -0.94496  -0.89712  -0.85494
 Alpha  occ. eigenvalues --   -0.82476  -0.78604  -0.77430  -0.75189  -0.72004
 Alpha  occ. eigenvalues --   -0.69858  -0.69386  -0.67782  -0.64882  -0.63838
 Alpha  occ. eigenvalues --   -0.62151  -0.60392  -0.57792  -0.56956  -0.55072
 Alpha  occ. eigenvalues --   -0.54529  -0.50719  -0.50162  -0.48697  -0.48121
 Alpha  occ. eigenvalues --   -0.47391  -0.46116  -0.46040  -0.43684  -0.41776
 Alpha  occ. eigenvalues --   -0.39685  -0.33871
 Alpha virt. eigenvalues --    0.07372   0.11647   0.17244   0.21854   0.24294
 Alpha virt. eigenvalues --    0.26029   0.26885   0.28694   0.29122   0.29582
 Alpha virt. eigenvalues --    0.30588   0.31811   0.31949   0.32775   0.34030

 Mulliken charges:
               1
     1  O   -0.467122
     2  N    0.491755
     3  O   -0.502711
     4  C    0.003111
     5  C    0.185342
     6  N   -0.777889
     7  C    0.058539
     8  H    0.180042
     9  C   -0.300851
    10  C   -0.328147
    11  C   -0.321788
    12  C   -0.306315
    13  C   -0.036641
    14  H    0.188226
    15  N   -0.511933
    16  C    0.123539
    17  H    0.293349
    18  H    0.404164
    19  H    0.189950
    20  H    0.163507
    21  H    0.174735
    22  H    0.149187
    23  H    0.199854
    24  H    0.164608
    25  H    0.187093
    26  H    0.149780
    27  H    0.246616
 Sum of Mulliken charges =  -0.00000

 Dipole moment (field-independent basis, Debye):
    X=              5.3875    Y=              4.6966    Z=              1.5611  Tot=              7.3157
 Quadrupole moment (field-independent basis, Debye-Ang):
   XX=           -105.9909   YY=            -79.6624   ZZ=            -81.1450
   XY=             -1.5881   XZ=             -0.7699   YZ=              2.7393

 Normal termination of Gaussian 16 at Sun Jul  2 21:50:26 2023.
