 Gaussian 16, Revision C.02,
 Gaussian 16:  ES64L-G16RevC.02  7-Dec-2021

 ---------------------------------------------------------
 #MP2/6-31G* SCF=Tight Opt=(ModRedun, MaxCycle=20 ) NoSymm
 ---------------------------------------------------------

 --------
 MolName:
 --------
 Symbolic Z-matrix:
 Charge =  0 Multiplicity = 1

 SCF Done:  E(RHF) =  -661.272281135     A.U. after   16 cycles
 E2 =    -0.2038057580D+01 EUMP2 =    -0.66331033871421D+03
 SCF Done:  E(RHF) =  -661.289981995     A.U. after   15 cycles
 E2 =    -0.2033704345D+01 EUMP2 =    -0.66332368634038D+03
 SCF Done:  E(RHF) =  -661.286902427     A.U. after   17 cycles
 E2 =    -0.2035199131D+01 EUMP2 =    -0.66332210155818D+03
 SCF Done:  E(RHF) =  -661.290832128     A.U. after   15 cycles
 E2 =    -0.2036112137D+01 EUMP2 =    -0.66332694426447D+03
 SCF Done:  E(RHF) =  -661.294231264     A.U. after   15 cycles
 E2 =    -0.2036217760D+01 EUMP2 =    -0.66333044902413D+03
 SCF Done:  E(RHF) =  -661.296152246     A.U. after   14 cycles
 E2 =    -0.2035190455D+01 EUMP2 =    -0.66333134270149D+03
 SCF Done:  E(RHF) =  -661.296683628     A.U. after   14 cycles
 E2 =    -0.2034931986D+01 EUMP2 =    -0.66333161561420D+03
 SCF Done:  E(RHF) =  -661.296539738     A.U. after   12 cycles
 E2 =    -0.2035126135D+01 EUMP2 =    -0.66333166587337D+03
 SCF Done:  E(RHF) =  -661.296459907     A.U. after   12 cycles
 E2 =    -0.2035216353D+01 EUMP2 =    -0.66333167626016D+03
 SCF Done:  E(RHF) =  -661.296447202     A.U. after   10 cycles
 E2 =    -0.2035230893D+01 EUMP2 =    -0.66333167809486D+03
 Optimization completed.
    -- Stationary point found.

                          Input orientation:
 ---------------------------------------------------------------------
 Center     Atomic      Atomic             Coordinates (Angstroms)
 Number     Number       Type             X           Y           Z
 ---------------------------------------------------------------------
      1          8           0       -3.509317   -1.386623   -0.319986
      2          7           0       -3.113508   -0.210639   -0.201312
      3          8           0       -3.876430    0.773795   -0.152564
      4          6           0       -1.676454    0.000206   -0.119494
      5          6           0       -1.298870    1.258352    0.274118
      6          7           0       -0.056019    1.760046    0.381627
      7          6           0        1.212507    1.038136    0.350758
      8          1           0        1.862249    1.575871    1.056516
      9          6           0        1.905468    1.031498   -1.009503
     10          6           0        3.302046    0.419555   -0.848364
     11          6           0        3.252423   -0.969603   -0.206395
     12          6           0        2.466786   -0.963112    1.106802
     13          6           0        1.057368   -0.407510    0.869970
     14          1           0        0.483381   -0.373188    1.809047
     15          7           0        0.405944   -1.314962   -0.065329
     16          6           0       -0.842941   -1.156323   -0.369216
     17          1           0       -2.087139    1.924195    0.614171
     18          1           0       -0.014694    2.694672    0.771111
     19          1           0        1.303542    0.447669   -1.714292
     20          1           0        1.971408    2.054565   -1.398970
     21          1           0        3.798976    0.368429   -1.823908
     22          1           0        3.909527    1.089942   -0.223777
     23          1           0        2.766148   -1.671810   -0.891002
     24          1           0        4.271149   -1.336277   -0.033394
     25          1           0        2.381250   -1.980074    1.503291
     26          1           0        2.983308   -0.356825    1.863873
     27          1           0       -1.296115   -1.947986   -0.965780
 ---------------------------------------------------------------------

 Alpha  occ. eigenvalues --  -20.59288 -20.58985 -15.84691 -15.64030 -15.56132
 Alpha  occ. eigenvalues --  -11.35056 -11.29653 -11.29636 -11.28722 -11.27180
 Alpha  occ. eigenvalues --  -11.23663 -11.23182 -11.22686 -11.22092  -1.57133
 Alpha  occ. eigenvalues --   -1.36752  -1.30858  -1.23049  -1.14712  -1.09821
 Alpha  occ. eigenvalues --   -1.02794  -1.01277  -0.94493  -0.89718  -0.85435
 Alpha  occ. eigenvalues --   -0.82502  -0.78576  -0.77445  -0.75197  -0.71987
 Alpha  occ. eigenvalues --   -0.69901  -0.69320  -0.67724  -0.64862  -0.63910
 Alpha  occ. eigenvalues --   -0.62019  -0.60520  -0.57853  -0.56914  -0.55081
 Alpha  occ. eigenvalues --   -0.54486  -0.50680  -0.50218  -0.48736  -0.48130
 Alpha  occ. eigenvalues --   -0.47389  -0.46092  -0.46047  -0.43654  -0.41894
 Alpha  occ. eigenvalues --   -0.39500  -0.33893
 Alpha virt. eigenvalues --    0.07249   0.11466   0.17152   0.21836   0.24407
 Alpha virt. eigenvalues --    0.26016   0.26729   0.28596   0.29237   0.29535
 Alpha virt. eigenvalues --    0.30418   0.31834   0.31869   0.32772   0.34088

 Mulliken charges:
               1
     1  O   -0.467718
     2  N    0.490741
     3  O   -0.498888
     4  C    0.006919
     5  C    0.183718
     6  N   -0.772659
     7  C    0.055220
     8  H    0.180415
     9  C   -0.300618
    10  C   -0.328311
    11  C   -0.322123
    12  C   -0.305908
    13  C   -0.036307
    14  H    0.186667
    15  N   -0.513083
    16  C    0.124054
    17  H    0.289483
    18  H    0.403100
    19  H    0.189908
    20  H    0.165566
    21  H    0.174883
    22  H    0.149119
    23  H    0.199825
    24  H    0.164721
    25  H    0.187195
    26  H    0.149231
    27  H    0.244853
 Sum of Mulliken charges =  -0.00000

 Dipole moment (field-independent basis, Debye):
    X=              5.3711    Y=              4.5841    Z=              1.8239  Tot=              7.2931
 Quadrupole moment (field-independent basis, Debye-Ang):
   XX=           -105.8402   YY=            -80.1323   ZZ=            -80.8330
   XY=             -1.3667   XZ=             -1.4320   YZ=              3.5374

 Normal termination of Gaussian 16 at Sun Jul  2 22:14:11 2023.
