 Gaussian 16, Revision C.02,
 Gaussian 16:  ES64L-G16RevC.02  7-Dec-2021

 ---------------------------------------------------------
 #MP2/6-31G* SCF=Tight Opt=(ModRedun, MaxCycle=20 ) NoSymm
 ---------------------------------------------------------

 --------
 MolName:
 --------
 Symbolic Z-matrix:
 Charge =  0 Multiplicity = 1

 SCF Done:  E(RHF) =  -661.274590006     A.U. after   16 cycles
 E2 =    -0.2037987884D+01 EUMP2 =    -0.66331257789010D+03
 SCF Done:  E(RHF) =  -661.293191782     A.U. after   15 cycles
 E2 =    -0.2033667843D+01 EUMP2 =    -0.66332685962449D+03
 SCF Done:  E(RHF) =  -661.287646305     A.U. after   17 cycles
 E2 =    -0.2035418706D+01 EUMP2 =    -0.66332306501097D+03
 SCF Done:  E(RHF) =  -661.288643404     A.U. after   15 cycles
 E2 =    -0.2036737125D+01 EUMP2 =    -0.66332538052897D+03
 SCF Done:  E(RHF) =  -661.294117546     A.U. after   11 cycles
 E2 =    -0.2034759580D+01 EUMP2 =    -0.66332887712542D+03
 SCF Done:  E(RHF) =  -661.294129342     A.U. after   13 cycles
 E2 =    -0.2035548544D+01 EUMP2 =    -0.66332967788593D+03
 SCF Done:  E(RHF) =  -661.294319945     A.U. after   13 cycles
 E2 =    -0.2035443910D+01 EUMP2 =    -0.66332976385542D+03
 SCF Done:  E(RHF) =  -661.294599411     A.U. after   11 cycles
 E2 =    -0.2035176963D+01 EUMP2 =    -0.66332977637341D+03
 SCF Done:  E(RHF) =  -661.294620535     A.U. after   10 cycles
 E2 =    -0.2035158171D+01 EUMP2 =    -0.66332977870626D+03
 SCF Done:  E(RHF) =  -661.294588887     A.U. after   10 cycles
 E2 =    -0.2035190343D+01 EUMP2 =    -0.66332977923011D+03
 Optimization completed.
    -- Stationary point found.

                          Input orientation:
 ---------------------------------------------------------------------
 Center     Atomic      Atomic             Coordinates (Angstroms)
 Number     Number       Type             X           Y           Z
 ---------------------------------------------------------------------
      1          8           0       -3.503523   -1.370378   -0.404967
      2          7           0       -3.113680   -0.250936   -0.019160
      3          8           0       -3.885231    0.680564    0.284473
      4          6           0       -1.680126   -0.048895    0.111037
      5          6           0       -1.309009    1.264810    0.269155
      6          7           0       -0.063382    1.744033    0.397818
      7          6           0        1.193542    1.006195    0.376848
      8          1           0        1.839488    1.523101    1.103620
      9          6           0        1.906220    1.042379   -0.974714
     10          6           0        3.307624    0.443008   -0.810214
     11          6           0        3.263984   -0.962406   -0.204717
     12          6           0        2.459892   -0.996726    1.096679
     13          6           0        1.048582   -0.447986    0.861571
     14          1           0        0.467353   -0.447539    1.797907
     15          7           0        0.410218   -1.325238   -0.121097
     16          6           0       -0.835938   -1.116706   -0.400720
     17          1           0       -2.074151    2.024253    0.134156
     18          1           0        0.020512    2.754436    0.413782
     19          1           0        1.321128    0.473814   -1.705134
     20          1           0        1.971382    2.076973   -1.335799
     21          1           0        3.818200    0.422810   -1.779822
     22          1           0        3.898275    1.103695   -0.159856
     23          1           0        2.796299   -1.651770   -0.914356
     24          1           0        4.284318   -1.321351   -0.024961
     25          1           0        2.376546   -2.025107    1.463630
     26          1           0        2.961618   -0.409337    1.877939
     27          1           0       -1.319144   -1.822676   -1.075107
 ---------------------------------------------------------------------

 Alpha  occ. eigenvalues --  -20.59027 -20.58724 -15.84479 -15.64398 -15.56073
 Alpha  occ. eigenvalues --  -11.35413 -11.29675 -11.29626 -11.28477 -11.27153
 Alpha  occ. eigenvalues --  -11.23930 -11.23308 -11.22735 -11.22133  -1.56904
 Alpha  occ. eigenvalues --   -1.36508  -1.31215  -1.23131  -1.14746  -1.09833
 Alpha  occ. eigenvalues --   -1.02876  -1.01355  -0.94389  -0.89536  -0.85768
 Alpha  occ. eigenvalues --   -0.82393  -0.78443  -0.77402  -0.75313  -0.72023
 Alpha  occ. eigenvalues --   -0.69479  -0.69446  -0.67810  -0.64891  -0.63698
 Alpha  occ. eigenvalues --   -0.63123  -0.60238  -0.57318  -0.57135  -0.55152
 Alpha  occ. eigenvalues --   -0.54740  -0.50867  -0.49999  -0.48547  -0.48055
 Alpha  occ. eigenvalues --   -0.47241  -0.46230  -0.46086  -0.43517  -0.41721
 Alpha  occ. eigenvalues --   -0.40112  -0.33710
 Alpha virt. eigenvalues --    0.07488   0.12028   0.17287   0.21526   0.23090
 Alpha virt. eigenvalues --    0.24763   0.27364   0.28298   0.28951   0.29774
 Alpha virt. eigenvalues --    0.30654   0.31758   0.32198   0.32663   0.33753

 Mulliken charges:
               1
     1  O   -0.470976
     2  N    0.486289
     3  O   -0.499416
     4  C    0.000430
     5  C    0.201934
     6  N   -0.772726
     7  C    0.057616
     8  H    0.181620
     9  C   -0.304179
    10  C   -0.327262
    11  C   -0.320981
    12  C   -0.307208
    13  C   -0.040733
    14  H    0.194469
    15  N   -0.508184
    16  C    0.103548
    17  H    0.289959
    18  H    0.404227
    19  H    0.191099
    20  H    0.156760
    21  H    0.174676
    22  H    0.150243
    23  H    0.200352
    24  H    0.164589
    25  H    0.187356
    26  H    0.151837
    27  H    0.254661
 Sum of Mulliken charges =  -0.00000

 Dipole moment (field-independent basis, Debye):
    X=              5.5198    Y=              4.9500    Z=              0.5490  Tot=              7.4345
 Quadrupole moment (field-independent basis, Debye-Ang):
   XX=           -106.4312   YY=            -78.6308   ZZ=            -82.2730
   XY=             -2.0904   XZ=              1.5239   YZ=             -0.2993

 Normal termination of Gaussian 16 at Sat Jul  1 05:01:17 2023.
