 Gaussian 16, Revision C.02,
 Gaussian 16:  ES64L-G16RevC.02  7-Dec-2021

 ---------------------------------------------------------
 #MP2/6-31G* SCF=Tight Opt=(ModRedun, MaxCycle=20 ) NoSymm
 ---------------------------------------------------------

 --------
 MolName:
 --------
 Symbolic Z-matrix:
 Charge =  0 Multiplicity = 1

 SCF Done:  E(RHF) =  -661.280216319     A.U. after   16 cycles
 E2 =    -0.2037547409D+01 EUMP2 =    -0.66331776372776D+03
 SCF Done:  E(RHF) =  -661.296479397     A.U. after   15 cycles
 E2 =    -0.2033072182D+01 EUMP2 =    -0.66332955157989D+03
 SCF Done:  E(RHF) =  -661.286131857     A.U. after   17 cycles
 E2 =    -0.2035056677D+01 EUMP2 =    -0.66332118853473D+03
 SCF Done:  E(RHF) =  -661.294019479     A.U. after   15 cycles
 E2 =    -0.2035433657D+01 EUMP2 =    -0.66332945313559D+03
 SCF Done:  E(RHF) =  -661.296836298     A.U. after   10 cycles
 E2 =    -0.2034134868D+01 EUMP2 =    -0.66333097116536D+03
 SCF Done:  E(RHF) =  -661.296578725     A.U. after   13 cycles
 E2 =    -0.2034809450D+01 EUMP2 =    -0.66333138817503D+03
 SCF Done:  E(RHF) =  -661.296756006     A.U. after   12 cycles
 E2 =    -0.2034691608D+01 EUMP2 =    -0.66333144761352D+03
 SCF Done:  E(RHF) =  -661.297000235     A.U. after   11 cycles
 E2 =    -0.2034458737D+01 EUMP2 =    -0.66333145897188D+03
 SCF Done:  E(RHF) =  -661.297020506     A.U. after   11 cycles
 E2 =    -0.2034440077D+01 EUMP2 =    -0.66333146058316D+03
 SCF Done:  E(RHF) =  -661.297002085     A.U. after    9 cycles
 E2 =    -0.2034458849D+01 EUMP2 =    -0.66333146093340D+03
 Optimization completed.
    -- Stationary point found.

                          Input orientation:
 ---------------------------------------------------------------------
 Center     Atomic      Atomic             Coordinates (Angstroms)
 Number     Number       Type             X           Y           Z
 ---------------------------------------------------------------------
      1          8           0       -3.452315   -1.455343   -0.036489
      2          7           0       -3.104027   -0.258703    0.004073
      3          8           0       -3.898171    0.689861    0.153587
      4          6           0       -1.683966    0.005945   -0.117473
      5          6           0       -1.293434    1.294840    0.131852
      6          7           0       -0.059534    1.754108    0.395612
      7          6           0        1.198190    1.020100    0.373005
      8          1           0        1.831224    1.526002    1.117363
      9          6           0        1.930921    1.061774   -0.967526
     10          6           0        3.322864    0.444102   -0.792480
     11          6           0        3.253931   -0.967368   -0.203850
     12          6           0        2.432632   -1.005533    1.086481
     13          6           0        1.030269   -0.439253    0.836344
     14          1           0        0.437814   -0.441093    1.764155
     15          7           0        0.396668   -1.317115   -0.147185
     16          6           0       -0.844220   -1.129219   -0.457906
     17          1           0       -2.087597    2.029128    0.243121
     18          1           0        0.018627    2.759394    0.501967
     19          1           0        1.348091    0.505551   -1.709987
     20          1           0        2.010075    2.098486   -1.318769
     21          1           0        3.845843    0.428887   -1.755578
     22          1           0        3.912909    1.090059   -0.126925
     23          1           0        2.786018   -1.642929   -0.926907
     24          1           0        4.267024   -1.342222   -0.016002
     25          1           0        2.333853   -2.036052    1.443026
     26          1           0        2.929891   -0.429471    1.879065
     27          1           0       -1.303563   -1.883935   -1.097564
 ---------------------------------------------------------------------

 Alpha  occ. eigenvalues --  -20.59181 -20.58834 -15.84647 -15.64132 -15.56235
 Alpha  occ. eigenvalues --  -11.35024 -11.29643 -11.29610 -11.28534 -11.27121
 Alpha  occ. eigenvalues --  -11.23906 -11.23297 -11.22676 -11.22131  -1.57041
 Alpha  occ. eigenvalues --   -1.36661  -1.30933  -1.23083  -1.14714  -1.09863
 Alpha  occ. eigenvalues --   -1.02811  -1.01390  -0.94496  -0.89672  -0.85667
 Alpha  occ. eigenvalues --   -0.82424  -0.78457  -0.77477  -0.75168  -0.71997
 Alpha  occ. eigenvalues --   -0.69812  -0.69322  -0.67813  -0.65010  -0.63771
 Alpha  occ. eigenvalues --   -0.62407  -0.60331  -0.57760  -0.56945  -0.54998
 Alpha  occ. eigenvalues --   -0.54659  -0.50797  -0.50032  -0.48598  -0.48123
 Alpha  occ. eigenvalues --   -0.47408  -0.46156  -0.46014  -0.43609  -0.41679
 Alpha  occ. eigenvalues --   -0.39878  -0.33863
 Alpha virt. eigenvalues --    0.07478   0.11928   0.17357   0.21590   0.23713
 Alpha virt. eigenvalues --    0.25104   0.27234   0.28739   0.29028   0.29484
 Alpha virt. eigenvalues --    0.30664   0.31501   0.32076   0.32749   0.33819

 Mulliken charges:
               1
     1  O   -0.467995
     2  N    0.494821
     3  O   -0.505224
     4  C   -0.005519
     5  C    0.185650
     6  N   -0.770906
     7  C    0.054651
     8  H    0.182679
     9  C   -0.304826
    10  C   -0.326893
    11  C   -0.321917
    12  C   -0.307102
    13  C   -0.034233
    14  H    0.195368
    15  N   -0.507515
    16  C    0.131519
    17  H    0.291416
    18  H    0.402702
    19  H    0.188620
    20  H    0.158895
    21  H    0.174554
    22  H    0.150224
    23  H    0.199374
    24  H    0.164959
    25  H    0.187935
    26  H    0.151104
    27  H    0.237657
 Sum of Mulliken charges =  -0.00000

 Dipole moment (field-independent basis, Debye):
    X=              5.4608    Y=              4.9365    Z=              0.4806  Tot=              7.3771
 Quadrupole moment (field-independent basis, Debye-Ang):
   XX=           -105.8160   YY=            -79.1669   ZZ=            -81.6851
   XY=             -2.1249   XZ=              2.3334   YZ=              1.4362

 Normal termination of Gaussian 16 at Sat Jul  1 23:18:58 2023.
