 Gaussian 16, Revision C.02,
 Gaussian 16:  ES64L-G16RevC.02  7-Dec-2021

 ---------------------------------------------------------
 #MP2/6-31G* SCF=Tight Opt=(ModRedun, MaxCycle=20 ) NoSymm
 ---------------------------------------------------------

 --------
 MolName:
 --------
 Symbolic Z-matrix:
 Charge =  0 Multiplicity = 1

 SCF Done:  E(RHF) =  -661.281322989     A.U. after   16 cycles
 E2 =    -0.2037298802D+01 EUMP2 =    -0.66331862179126D+03
 SCF Done:  E(RHF) =  -661.298266408     A.U. after   15 cycles
 E2 =    -0.2032719087D+01 EUMP2 =    -0.66333098549478D+03
 SCF Done:  E(RHF) =  -661.295548027     A.U. after   15 cycles
 E2 =    -0.2033974477D+01 EUMP2 =    -0.66332952250441D+03
 SCF Done:  E(RHF) =  -661.292047647     A.U. after   16 cycles
 E2 =    -0.2035940138D+01 EUMP2 =    -0.66332798778463D+03
 SCF Done:  E(RHF) =  -661.289858344     A.U. after   15 cycles
 E2 =    -0.2036196057D+01 EUMP2 =    -0.66332605440102D+03
 SCF Done:  E(RHF) =  -661.298400983     A.U. after   12 cycles
 E2 =    -0.2033413407D+01 EUMP2 =    -0.66333181439097D+03
 SCF Done:  E(RHF) =  -661.298931640     A.U. after   15 cycles
 E2 =    -0.2034665989D+01 EUMP2 =    -0.66333359762867D+03
 SCF Done:  E(RHF) =  -661.299375738     A.U. after   12 cycles
 E2 =    -0.2034426484D+01 EUMP2 =    -0.66333380222115D+03
 SCF Done:  E(RHF) =  -661.299689008     A.U. after   12 cycles
 E2 =    -0.2034150496D+01 EUMP2 =    -0.66333383950368D+03
 SCF Done:  E(RHF) =  -661.299680576     A.U. after   11 cycles
 E2 =    -0.2034166345D+01 EUMP2 =    -0.66333384692026D+03
 SCF Done:  E(RHF) =  -661.299662594     A.U. after   10 cycles
 E2 =    -0.2034186261D+01 EUMP2 =    -0.66333384885487D+03
 SCF Done:  E(RHF) =  -661.299662285     A.U. after    9 cycles
 E2 =    -0.2034186768D+01 EUMP2 =    -0.66333384905278D+03
 Optimization completed.
    -- Stationary point found.

                          Input orientation:
 ---------------------------------------------------------------------
 Center     Atomic      Atomic             Coordinates (Angstroms)
 Number     Number       Type             X           Y           Z
 ---------------------------------------------------------------------
      1          8           0       -3.488276   -1.427712   -0.203477
      2          7           0       -3.115769   -0.246930   -0.056696
      3          8           0       -3.898643    0.709360    0.104067
      4          6           0       -1.684168   -0.008072   -0.062172
      5          6           0       -1.298153    1.279396    0.203415
      6          7           0       -0.056714    1.752337    0.391180
      7          6           0        1.203005    1.022376    0.366141
      8          1           0        1.843743    1.539803    1.096011
      9          6           0        1.921040    1.048403   -0.982347
     10          6           0        3.316125    0.435997   -0.812885
     11          6           0        3.257377   -0.967807   -0.204928
     12          6           0        2.449426   -0.991835    1.094230
     13          6           0        1.043410   -0.431706    0.851023
     14          1           0        0.459121   -0.421738    1.784371
     15          7           0        0.402869   -1.317321   -0.118659
     16          6           0       -0.841341   -1.133137   -0.421275
     17          1           0       -2.092786    2.010054    0.329676
     18          1           0        0.010273    2.749852    0.556383
     19          1           0        1.332159    0.481455   -1.711522
     20          1           0        1.993794    2.080720   -1.347135
     21          1           0        3.829429    0.409107   -1.780905
     22          1           0        3.911388    1.092193   -0.162093
     23          1           0        2.784206   -1.654067   -0.914271
     24          1           0        4.273489   -1.337161   -0.022493
     25          1           0        2.357087   -2.018057    1.464706
     26          1           0        2.953342   -0.404759    1.874447
     27          1           0       -1.302442   -1.887761   -1.058782
 ---------------------------------------------------------------------

 Alpha  occ. eigenvalues --  -20.59198 -20.58866 -15.84671 -15.64112 -15.56173
 Alpha  occ. eigenvalues --  -11.35006 -11.29617 -11.29604 -11.28575 -11.27123
 Alpha  occ. eigenvalues --  -11.23812 -11.23249 -11.22681 -11.22108  -1.57069
 Alpha  occ. eigenvalues --   -1.36673  -1.30956  -1.23075  -1.14709  -1.09842
 Alpha  occ. eigenvalues --   -1.02810  -1.01351  -0.94493  -0.89682  -0.85618
 Alpha  occ. eigenvalues --   -0.82439  -0.78552  -0.77441  -0.75193  -0.71996
 Alpha  occ. eigenvalues --   -0.69789  -0.69375  -0.67817  -0.64954  -0.63772
 Alpha  occ. eigenvalues --   -0.62400  -0.60319  -0.57732  -0.56974  -0.55041
 Alpha  occ. eigenvalues --   -0.54621  -0.50782  -0.50079  -0.48617  -0.48120
 Alpha  occ. eigenvalues --   -0.47383  -0.46108  -0.46071  -0.43637  -0.41682
 Alpha  occ. eigenvalues --   -0.39870  -0.33832
 Alpha virt. eigenvalues --    0.07495   0.11873   0.17349   0.21751   0.23946
 Alpha virt. eigenvalues --    0.25408   0.27228   0.28787   0.29040   0.29557
 Alpha virt. eigenvalues --    0.30696   0.31657   0.32054   0.32768   0.33898

 Mulliken charges:
               1
     1  O   -0.467613
     2  N    0.492434
     3  O   -0.505003
     4  C   -0.004510
     5  C    0.190775
     6  N   -0.779957
     7  C    0.059190
     8  H    0.181278
     9  C   -0.303069
    10  C   -0.327420
    11  C   -0.321703
    12  C   -0.306898
    13  C   -0.035674
    14  H    0.192776
    15  N   -0.509664
    16  C    0.126711
    17  H    0.294308
    18  H    0.404332
    19  H    0.189357
    20  H    0.160021
    21  H    0.174577
    22  H    0.149766
    23  H    0.199653
    24  H    0.164735
    25  H    0.187466
    26  H    0.150735
    27  H    0.243398
 Sum of Mulliken charges =  -0.00000

 Dipole moment (field-independent basis, Debye):
    X=              5.4451    Y=              4.8832    Z=              0.8773  Tot=              7.3665
 Quadrupole moment (field-independent basis, Debye-Ang):
   XX=           -106.0769   YY=            -79.1695   ZZ=            -81.5557
   XY=             -2.0108   XZ=              1.1038   YZ=              1.6252

 Normal termination of Gaussian 16 at Sat Jul  1 22:57:24 2023.
