 Gaussian 16, Revision C.02,
 Gaussian 16:  ES64L-G16RevC.02  7-Dec-2021

 ---------------------------------------------------------
 #MP2/6-31G* SCF=Tight Opt=(ModRedun, MaxCycle=20 ) NoSymm
 ---------------------------------------------------------

 --------
 MolName:
 --------
 Symbolic Z-matrix:
 Charge =  0 Multiplicity = 1

 SCF Done:  E(RHF) =  -661.279340574     A.U. after   16 cycles
 E2 =    -0.2037353440D+01 EUMP2 =    -0.66331669401407D+03
 SCF Done:  E(RHF) =  -661.297128087     A.U. after   14 cycles
 E2 =    -0.2032773622D+01 EUMP2 =    -0.66332990170835D+03
 SCF Done:  E(RHF) =  -661.299705423     A.U. after   14 cycles
 E2 =    -0.2033320600D+01 EUMP2 =    -0.66333302602295D+03
 SCF Done:  E(RHF) =  -661.289821353     A.U. after   17 cycles
 E2 =    -0.2036331484D+01 EUMP2 =    -0.66332615283666D+03
 SCF Done:  E(RHF) =  -661.298696174     A.U. after   15 cycles
 E2 =    -0.2035473698D+01 EUMP2 =    -0.66333416987255D+03
 SCF Done:  E(RHF) =  -661.299780627     A.U. after   13 cycles
 E2 =    -0.2034799513D+01 EUMP2 =    -0.66333458014064D+03
 SCF Done:  E(RHF) =  -661.300455794     A.U. after   12 cycles
 E2 =    -0.2034181424D+01 EUMP2 =    -0.66333463721841D+03
 SCF Done:  E(RHF) =  -661.300526425     A.U. after   11 cycles
 E2 =    -0.2034120226D+01 EUMP2 =    -0.66333464665106D+03
 SCF Done:  E(RHF) =  -661.300420158     A.U. after   10 cycles
 E2 =    -0.2034229004D+01 EUMP2 =    -0.66333464916198D+03
 SCF Done:  E(RHF) =  -661.300356017     A.U. after    9 cycles
 E2 =    -0.2034293365D+01 EUMP2 =    -0.66333464938163D+03
 Optimization completed.
    -- Stationary point found.

                          Input orientation:
 ---------------------------------------------------------------------
 Center     Atomic      Atomic             Coordinates (Angstroms)
 Number     Number       Type             X           Y           Z
 ---------------------------------------------------------------------
      1          8           0       -3.507096   -1.390910   -0.368088
      2          7           0       -3.121159   -0.232603   -0.116709
      3          8           0       -3.895352    0.728617    0.056790
      4          6           0       -1.686615   -0.024043   -0.008642
      5          6           0       -1.301383    1.260731    0.274880
      6          7           0       -0.057152    1.750457    0.385015
      7          6           0        1.205715    1.024373    0.358255
      8          1           0        1.853686    1.554071    1.072908
      9          6           0        1.908634    1.034153   -0.997874
     10          6           0        3.307120    0.427769   -0.833769
     11          6           0        3.259502   -0.967706   -0.205769
     12          6           0        2.465044   -0.977075    1.102020
     13          6           0        1.055187   -0.423731    0.865567
     14          1           0        0.478994   -0.401535    1.804189
     15          7           0        0.408381   -1.318084   -0.089550
     16          6           0       -0.839087   -1.138665   -0.384656
     17          1           0       -2.096172    1.987696    0.418071
     18          1           0        0.001728    2.735860    0.613192
     19          1           0        1.314115    0.455904   -1.713204
     20          1           0        1.974380    2.061700   -1.376703
     21          1           0        3.810684    0.388735   -1.806477
     22          1           0        3.907117    1.094771   -0.198420
     23          1           0        2.781579   -1.665226   -0.900728
     24          1           0        4.278775   -1.330962   -0.028685
     25          1           0        2.379811   -1.998635    1.486905
     26          1           0        2.975276   -0.378435    1.869267
     27          1           0       -1.300712   -1.894235   -1.019785
 ---------------------------------------------------------------------

 Alpha  occ. eigenvalues --  -20.59237 -20.58904 -15.84722 -15.64136 -15.56112
 Alpha  occ. eigenvalues --  -11.35017 -11.29622 -11.29560 -11.28628 -11.27135
 Alpha  occ. eigenvalues --  -11.23728 -11.23208 -11.22692 -11.22089  -1.57115
 Alpha  occ. eigenvalues --   -1.36708  -1.30978  -1.23065  -1.14703  -1.09819
 Alpha  occ. eigenvalues --   -1.02805  -1.01308  -0.94481  -0.89685  -0.85566
 Alpha  occ. eigenvalues --   -0.82448  -0.78609  -0.77411  -0.75202  -0.72019
 Alpha  occ. eigenvalues --   -0.69770  -0.69438  -0.67820  -0.64893  -0.63778
 Alpha  occ. eigenvalues --   -0.62368  -0.60282  -0.57701  -0.57001  -0.55077
 Alpha  occ. eigenvalues --   -0.54582  -0.50762  -0.50109  -0.48656  -0.48102
 Alpha  occ. eigenvalues --   -0.47371  -0.46146  -0.46044  -0.43677  -0.41696
 Alpha  occ. eigenvalues --   -0.39848  -0.33830
 Alpha virt. eigenvalues --    0.07465   0.11798   0.17307   0.21848   0.24113
 Alpha virt. eigenvalues --    0.25664   0.27134   0.28694   0.29044   0.29635
 Alpha virt. eigenvalues --    0.30683   0.31797   0.32036   0.32766   0.33950

 Mulliken charges:
               1
     1  O   -0.467228
     2  N    0.491269
     3  O   -0.504044
     4  C    0.000470
     5  C    0.188867
     6  N   -0.780288
     7  C    0.060255
     8  H    0.180080
     9  C   -0.301428
    10  C   -0.327939
    11  C   -0.321489
    12  C   -0.306655
    13  C   -0.037184
    14  H    0.189961
    15  N   -0.511210
    16  C    0.120009
    17  H    0.295316
    18  H    0.404872
    19  H    0.190186
    20  H    0.161385
    21  H    0.174645
    22  H    0.149359
    23  H    0.199937
    24  H    0.164540
    25  H    0.187061
    26  H    0.150349
    27  H    0.248904
 Sum of Mulliken charges =  -0.00000

 Dipole moment (field-independent basis, Debye):
    X=              5.4162    Y=              4.7971    Z=              1.2747  Tot=              7.3466
 Quadrupole moment (field-independent basis, Debye-Ang):
   XX=           -106.1421   YY=            -79.2221   ZZ=            -81.5042
   XY=             -1.7663   XZ=             -0.1201   YZ=              1.8559

 Normal termination of Gaussian 16 at Sat Jul  1 21:46:19 2023.
