 Gaussian 16, Revision C.02,
 Gaussian 16:  ES64L-G16RevC.02  7-Dec-2021

 ---------------------------------------------------------
 #MP2/6-31G* SCF=Tight Opt=(ModRedun, MaxCycle=20 ) NoSymm
 ---------------------------------------------------------

 --------
 MolName:
 --------
 Symbolic Z-matrix:
 Charge =  0 Multiplicity = 1

 SCF Done:  E(RHF) =  -661.274763158     A.U. after   16 cycles
 E2 =    -0.2037678508D+01 EUMP2 =    -0.66331244166548D+03
 SCF Done:  E(RHF) =  -661.293372884     A.U. after   15 cycles
 E2 =    -0.2033210982D+01 EUMP2 =    -0.66332658386626D+03
 SCF Done:  E(RHF) =  -661.293804927     A.U. after   15 cycles
 E2 =    -0.2033860829D+01 EUMP2 =    -0.66332766575616D+03
 SCF Done:  E(RHF) =  -661.291735140     A.U. after   17 cycles
 E2 =    -0.2035923164D+01 EUMP2 =    -0.66332765830429D+03
 SCF Done:  E(RHF) =  -661.296638627     A.U. after   14 cycles
 E2 =    -0.2035854825D+01 EUMP2 =    -0.66333249345190D+03
 SCF Done:  E(RHF) =  -661.298376423     A.U. after   14 cycles
 E2 =    -0.2035252370D+01 EUMP2 =    -0.66333362879311D+03
 SCF Done:  E(RHF) =  -661.299214680     A.U. after   12 cycles
 E2 =    -0.2034581571D+01 EUMP2 =    -0.66333379625064D+03
 SCF Done:  E(RHF) =  -661.299273921     A.U. after   12 cycles
 E2 =    -0.2034554600D+01 EUMP2 =    -0.66333382852108D+03
 SCF Done:  E(RHF) =  -661.299162703     A.U. after   11 cycles
 E2 =    -0.2034671376D+01 EUMP2 =    -0.66333383407909D+03
 SCF Done:  E(RHF) =  -661.299078556     A.U. after   10 cycles
 E2 =    -0.2034756199D+01 EUMP2 =    -0.66333383475505D+03
 Optimization completed.
    -- Stationary point found.

                          Input orientation:
 ---------------------------------------------------------------------
 Center     Atomic      Atomic             Coordinates (Angstroms)
 Number     Number       Type             X           Y           Z
 ---------------------------------------------------------------------
      1          8           0       -3.508192   -1.343702   -0.534981
      2          7           0       -3.119306   -0.213825   -0.181711
      3          8           0       -3.887127    0.750774    0.001020
      4          6           0       -1.690638   -0.040880    0.040079
      5          6           0       -1.302441    1.239250    0.345093
      6          7           0       -0.060322    1.748142    0.380057
      7          6           0        1.206864    1.025893    0.351850
      8          1           0        1.861307    1.567751    1.051368
      9          6           0        1.894748    1.019813   -1.011364
     10          6           0        3.296580    0.419422   -0.852648
     11          6           0        3.260074   -0.967627   -0.205271
     12          6           0        2.478850   -0.962559    1.110650
     13          6           0        1.065284   -0.415946    0.880725
     14          1           0        0.496869   -0.381901    1.824182
     15          7           0        0.413077   -1.319409   -0.059860
     16          6           0       -0.837406   -1.145856   -0.348623
     17          1           0       -2.096937    1.962921    0.505027
     18          1           0       -0.005795    2.719399    0.664560
     19          1           0        1.295015    0.430632   -1.713032
     20          1           0        1.953504    2.042533   -1.403748
     21          1           0        3.790532    0.368447   -1.829701
     22          1           0        3.900966    1.096836   -0.232629
     23          1           0        2.777723   -1.676014   -0.885957
     24          1           0        4.282358   -1.324944   -0.033521
     25          1           0        2.400892   -1.979317    1.509583
     26          1           0        2.994931   -0.352546    1.864923
     27          1           0       -1.298423   -1.904266   -0.980060
 ---------------------------------------------------------------------

 Alpha  occ. eigenvalues --  -20.59290 -20.58942 -15.84794 -15.64203 -15.56051
 Alpha  occ. eigenvalues --  -11.35059 -11.29625 -11.29513 -11.28686 -11.27156
 Alpha  occ. eigenvalues --  -11.23664 -11.23176 -11.22706 -11.22077  -1.57177
 Alpha  occ. eigenvalues --   -1.36760  -1.30995  -1.23052  -1.14701  -1.09797
 Alpha  occ. eigenvalues --   -1.02799  -1.01264  -0.94465  -0.89682  -0.85517
 Alpha  occ. eigenvalues --   -0.82452  -0.78624  -0.77394  -0.75201  -0.72063
 Alpha  occ. eigenvalues --   -0.69755  -0.69509  -0.67823  -0.64830  -0.63786
 Alpha  occ. eigenvalues --   -0.62312  -0.60238  -0.57676  -0.57012  -0.55098
 Alpha  occ. eigenvalues --   -0.54552  -0.50735  -0.50120  -0.48706  -0.48080
 Alpha  occ. eigenvalues --   -0.47372  -0.46201  -0.46004  -0.43726  -0.41735
 Alpha  occ. eigenvalues --   -0.39813  -0.33842
 Alpha virt. eigenvalues --    0.07378   0.11702   0.17252   0.21913   0.24237
 Alpha virt. eigenvalues --    0.25769   0.26935   0.28459   0.29080   0.29687
 Alpha virt. eigenvalues --    0.30672   0.31880   0.32053   0.32753   0.33965

 Mulliken charges:
               1
     1  O   -0.466899
     2  N    0.491575
     3  O   -0.502685
     4  C    0.008292
     5  C    0.180340
     6  N   -0.771770
     7  C    0.057925
     8  H    0.179204
     9  C   -0.300112
    10  C   -0.328405
    11  C   -0.321312
    12  C   -0.306327
    13  C   -0.038795
    14  H    0.187111
    15  N   -0.512361
    16  C    0.112665
    17  H    0.294516
    18  H    0.404203
    19  H    0.191113
    20  H    0.162752
    21  H    0.174766
    22  H    0.149049
    23  H    0.200242
    24  H    0.164390
    25  H    0.186737
    26  H    0.149977
    27  H    0.253807
 Sum of Mulliken charges =  -0.00000

 Dipole moment (field-independent basis, Debye):
    X=              5.3773    Y=              4.6783    Z=              1.6670  Tot=              7.3199
 Quadrupole moment (field-independent basis, Debye-Ang):
   XX=           -106.0060   YY=            -79.3053   ZZ=            -81.5516
   XY=             -1.3764   XZ=             -1.3757   YZ=              2.0794

 Normal termination of Gaussian 16 at Sat Jul  1 22:08:51 2023.
