 Gaussian 16, Revision C.02,
 Gaussian 16:  ES64L-G16RevC.02  7-Dec-2021

 ---------------------------------------------------------
 #MP2/6-31G* SCF=Tight Opt=(ModRedun, MaxCycle=20 ) NoSymm
 ---------------------------------------------------------

 --------
 MolName:
 --------
 Symbolic Z-matrix:
 Charge =  0 Multiplicity = 1

 SCF Done:  E(RHF) =  -661.268014614     A.U. after   16 cycles
 E2 =    -0.2038241414D+01 EUMP2 =    -0.66330625602782D+03
 SCF Done:  E(RHF) =  -661.287362734     A.U. after   15 cycles
 E2 =    -0.2033977901D+01 EUMP2 =    -0.66332134063503D+03
 SCF Done:  E(RHF) =  -661.286777083     A.U. after   17 cycles
 E2 =    -0.2034348692D+01 EUMP2 =    -0.66332112577430D+03
 SCF Done:  E(RHF) =  -661.289320499     A.U. after   16 cycles
 E2 =    -0.2036195080D+01 EUMP2 =    -0.66332551557909D+03
 SCF Done:  E(RHF) =  -661.293587705     A.U. after   15 cycles
 E2 =    -0.2036374013D+01 EUMP2 =    -0.66332996171765D+03
 SCF Done:  E(RHF) =  -661.295603497     A.U. after   13 cycles
 E2 =    -0.2035417348D+01 EUMP2 =    -0.66333102084537D+03
 SCF Done:  E(RHF) =  -661.296192154     A.U. after   13 cycles
 E2 =    -0.2035107738D+01 EUMP2 =    -0.66333129989154D+03
 SCF Done:  E(RHF) =  -661.295951248     A.U. after   12 cycles
 E2 =    -0.2035395278D+01 EUMP2 =    -0.66333134652648D+03
 SCF Done:  E(RHF) =  -661.295873950     A.U. after   11 cycles
 E2 =    -0.2035480092D+01 EUMP2 =    -0.66333135404192D+03
 SCF Done:  E(RHF) =  -661.295834108     A.U. after   10 cycles
 E2 =    -0.2035520291D+01 EUMP2 =    -0.66333135439917D+03
 Optimization completed.
    -- Stationary point found.

                          Input orientation:
 ---------------------------------------------------------------------
 Center     Atomic      Atomic             Coordinates (Angstroms)
 Number     Number       Type             X           Y           Z
 ---------------------------------------------------------------------
      1          8           0       -3.491621   -1.286341   -0.702098
      2          7           0       -3.109424   -0.190463   -0.249881
      3          8           0       -3.871864    0.777632   -0.062819
      4          6           0       -1.696783   -0.059784    0.086987
      5          6           0       -1.301470    1.214047    0.415225
      6          7           0       -0.066379    1.743673    0.379802
      7          6           0        1.206542    1.026832    0.347785
      8          1           0        1.867247    1.580737    1.031835
      9          6           0        1.877859    1.005634   -1.022862
     10          6           0        3.283322    0.411566   -0.871351
     11          6           0        3.258987   -0.967011   -0.205400
     12          6           0        2.492312   -0.948103    1.119110
     13          6           0        1.074697   -0.408559    0.897364
     14          1           0        0.515053   -0.362944    1.845990
     15          7           0        0.416622   -1.322219   -0.027404
     16          6           0       -0.837202   -1.156522   -0.309231
     17          1           0       -2.095469    1.935086    0.589880
     18          1           0       -0.013899    2.702038    0.707422
     19          1           0        1.272450    0.405716   -1.710193
     20          1           0        1.928944    2.023446   -1.428551
     21          1           0        3.766714    0.349085   -1.852990
     22          1           0        3.892307    1.099115   -0.267168
     23          1           0        2.771883   -1.685924   -0.871442
     24          1           0        4.284461   -1.318264   -0.040311
     25          1           0        2.422290   -1.960058    1.531482
     26          1           0        3.014678   -0.327111    1.860002
     27          1           0       -1.296239   -1.919304   -0.936183
 ---------------------------------------------------------------------

 Alpha  occ. eigenvalues --  -20.59332 -20.58958 -15.84868 -15.64329 -15.55980
 Alpha  occ. eigenvalues --  -11.35141 -11.29636 -11.29459 -11.28725 -11.27187
 Alpha  occ. eigenvalues --  -11.23628 -11.23159 -11.22722 -11.22072  -1.57224
 Alpha  occ. eigenvalues --   -1.36798  -1.31037  -1.23026  -1.14706  -1.09782
 Alpha  occ. eigenvalues --   -1.02797  -1.01230  -0.94449  -0.89674  -0.85486
 Alpha  occ. eigenvalues --   -0.82452  -0.78610  -0.77385  -0.75195  -0.72132
 Alpha  occ. eigenvalues --   -0.69725  -0.69574  -0.67828  -0.64773  -0.63794
 Alpha  occ. eigenvalues --   -0.62244  -0.60191  -0.57669  -0.57005  -0.55105
 Alpha  occ. eigenvalues --   -0.54536  -0.50708  -0.50111  -0.48743  -0.48059
 Alpha  occ. eigenvalues --   -0.47370  -0.46252  -0.45972  -0.43768  -0.41798
 Alpha  occ. eigenvalues --   -0.39762  -0.33839
 Alpha virt. eigenvalues --    0.07245   0.11593   0.17175   0.21953   0.24324
 Alpha virt. eigenvalues --    0.25483   0.26764   0.28228   0.29128   0.29710
 Alpha virt. eigenvalues --    0.30695   0.31892   0.32116   0.32741   0.33957

 Mulliken charges:
               1
     1  O   -0.466824
     2  N    0.493319
     3  O   -0.501429
     4  C    0.016356
     5  C    0.168557
     6  N   -0.757496
     7  C    0.053626
     8  H    0.178701
     9  C   -0.299265
    10  C   -0.328803
    11  C   -0.321182
    12  C   -0.305929
    13  C   -0.040447
    14  H    0.184386
    15  N   -0.513599
    16  C    0.106142
    17  H    0.292452
    18  H    0.402902
    19  H    0.192163
    20  H    0.163977
    21  H    0.174968
    22  H    0.148846
    23  H    0.200579
    24  H    0.164294
    25  H    0.186519
    26  H    0.149634
    27  H    0.257554
 Sum of Mulliken charges =  -0.00000

 Dipole moment (field-independent basis, Debye):
    X=              5.3384    Y=              4.5450    Z=              2.0414  Tot=              7.3022
 Quadrupole moment (field-independent basis, Debye-Ang):
   XX=           -105.6930   YY=            -79.3801   ZZ=            -81.7156
   XY=             -0.8535   XZ=             -2.6425   YZ=              2.2788

 Normal termination of Gaussian 16 at Sat Jul  1 22:29:55 2023.
