 Gaussian 16, Revision C.02,
 Gaussian 16:  ES64L-G16RevC.02  7-Dec-2021

 ---------------------------------------------------------
 #MP2/6-31G* SCF=Tight Opt=(ModRedun, MaxCycle=20 ) NoSymm
 ---------------------------------------------------------

 --------
 MolName:
 --------
 Symbolic Z-matrix:
 Charge =  0 Multiplicity = 1

 SCF Done:  E(RHF) =  -661.278126680     A.U. after   16 cycles
 E2 =    -0.2037829140D+01 EUMP2 =    -0.66331595582039D+03
 SCF Done:  E(RHF) =  -661.294126157     A.U. after   15 cycles
 E2 =    -0.2033449853D+01 EUMP2 =    -0.66332757601075D+03
 SCF Done:  E(RHF) =  -661.281656336     A.U. after   17 cycles
 E2 =    -0.2035424654D+01 EUMP2 =    -0.66331708099006D+03
 SCF Done:  E(RHF) =  -661.292321306     A.U. after   14 cycles
 E2 =    -0.2035635257D+01 EUMP2 =    -0.66332795656226D+03
 SCF Done:  E(RHF) =  -661.294134328     A.U. after   13 cycles
 E2 =    -0.2035159942D+01 EUMP2 =    -0.66332929427048D+03
 SCF Done:  E(RHF) =  -661.294406079     A.U. after   12 cycles
 E2 =    -0.2034929426D+01 EUMP2 =    -0.66332933550477D+03
 SCF Done:  E(RHF) =  -661.294598697     A.U. after   11 cycles
 E2 =    -0.2034746113D+01 EUMP2 =    -0.66332934480984D+03
 SCF Done:  E(RHF) =  -661.294575531     A.U. after    9 cycles
 E2 =    -0.2034770495D+01 EUMP2 =    -0.66332934602569D+03
 SCF Done:  E(RHF) =  -661.294552856     A.U. after    9 cycles
 E2 =    -0.2034793386D+01 EUMP2 =    -0.66332934624235D+03
 Optimization completed.
    -- Stationary point found.

                          Input orientation:
 ---------------------------------------------------------------------
 Center     Atomic      Atomic             Coordinates (Angstroms)
 Number     Number       Type             X           Y           Z
 ---------------------------------------------------------------------
      1          8           0       -3.422131   -1.468086    0.065635
      2          7           0       -3.093535   -0.265314    0.044344
      3          8           0       -3.895688    0.676921    0.190532
      4          6           0       -1.684780    0.012904   -0.147698
      5          6           0       -1.290092    1.302253    0.091846
      6          7           0       -0.062275    1.755520    0.396411
      7          6           0        1.194714    1.019247    0.375346
      8          1           0        1.823418    1.519108    1.127304
      9          6           0        1.934989    1.069246   -0.960839
     10          6           0        3.325369    0.449045   -0.782983
     11          6           0        3.251429   -0.966348   -0.204584
     12          6           0        2.423232   -1.012021    1.081003
     13          6           0        1.022734   -0.442708    0.827316
     14          1           0        0.425975   -0.450889    1.752117
     15          7           0        0.393134   -1.316967   -0.163337
     16          6           0       -0.846014   -1.127392   -0.478336
     17          1           0       -2.084007    2.038287    0.196545
     18          1           0        0.022759    2.763496    0.472578
     19          1           0        1.355436    0.518587   -1.710154
     20          1           0        2.017236    2.108205   -1.304951
     21          1           0        3.853353    0.440002   -1.743435
     22          1           0        3.912521    1.089688   -0.109810
     23          1           0        2.786373   -1.636302   -0.934727
     24          1           0        4.262966   -1.343987   -0.013983
     25          1           0        2.321267   -2.044751    1.430153
     26          1           0        2.916871   -0.441750    1.880002
     27          1           0       -1.304256   -1.882971   -1.118318
 ---------------------------------------------------------------------

 Alpha  occ. eigenvalues --  -20.59177 -20.58815 -15.84643 -15.64167 -15.56270
 Alpha  occ. eigenvalues --  -11.35048 -11.29660 -11.29607 -11.28512 -11.27121
 Alpha  occ. eigenvalues --  -11.23962 -11.23325 -11.22673 -11.22145  -1.57025
 Alpha  occ. eigenvalues --   -1.36654  -1.30925  -1.23085  -1.14718  -1.09874
 Alpha  occ. eigenvalues --   -1.02811  -1.01409  -0.94496  -0.89662  -0.85692
 Alpha  occ. eigenvalues --   -0.82415  -0.78390  -0.77498  -0.75149  -0.72012
 Alpha  occ. eigenvalues --   -0.69822  -0.69293  -0.67808  -0.65039  -0.63771
 Alpha  occ. eigenvalues --   -0.62401  -0.60325  -0.57774  -0.56929  -0.54975
 Alpha  occ. eigenvalues --   -0.54677  -0.50802  -0.49998  -0.48598  -0.48115
 Alpha  occ. eigenvalues --   -0.47424  -0.46187  -0.45972  -0.43594  -0.41677
 Alpha  occ. eigenvalues --   -0.39876  -0.33893
 Alpha virt. eigenvalues --    0.07449   0.11955   0.17336   0.21447   0.23545
 Alpha virt. eigenvalues --    0.24937   0.27210   0.28674   0.29008   0.29454
 Alpha virt. eigenvalues --    0.30617   0.31416   0.32087   0.32733   0.33773

 Mulliken charges:
               1
     1  O   -0.468215
     2  N    0.496501
     3  O   -0.505008
     4  C   -0.004449
     5  C    0.180506
     6  N   -0.762954
     7  C    0.050955
     8  H    0.183544
     9  C   -0.305834
    10  C   -0.326599
    11  C   -0.322039
    12  C   -0.307212
    13  C   -0.033486
    14  H    0.196741
    15  N   -0.505984
    16  C    0.133044
    17  H    0.289015
    18  H    0.401492
    19  H    0.188232
    20  H    0.158385
    21  H    0.174554
    22  H    0.150495
    23  H    0.199233
    24  H    0.165097
    25  H    0.188237
    26  H    0.151293
    27  H    0.234456
 Sum of Mulliken charges =  -0.00000

 Dipole moment (field-independent basis, Debye):
    X=              5.4618    Y=              4.9582    Z=              0.2475  Tot=              7.3808
 Quadrupole moment (field-independent basis, Debye-Ang):
   XX=           -105.5725   YY=            -79.1755   ZZ=            -81.8016
   XY=             -2.1417   XZ=              3.0798   YZ=              1.3604

 Normal termination of Gaussian 16 at Fri Jun 30 23:27:15 2023.
