 Gaussian 16, Revision C.02,
 Gaussian 16:  ES64L-G16RevC.02  7-Dec-2021

 ---------------------------------------------------------
 #MP2/6-31G* SCF=Tight Opt=(ModRedun, MaxCycle=20 ) NoSymm
 ---------------------------------------------------------

 --------
 MolName:
 --------
 Symbolic Z-matrix:
 Charge =  0 Multiplicity = 1

 SCF Done:  E(RHF) =  -661.275229530     A.U. after   16 cycles
 E2 =    -0.2037899632D+01 EUMP2 =    -0.66331312916187D+03
 SCF Done:  E(RHF) =  -661.294070383     A.U. after   15 cycles
 E2 =    -0.2033934224D+01 EUMP2 =    -0.66332800460736D+03
 SCF Done:  E(RHF) =  -661.295099285     A.U. after   13 cycles
 E2 =    -0.2035112061D+01 EUMP2 =    -0.66333021134570D+03
 SCF Done:  E(RHF) =  -661.282740265     A.U. after   17 cycles
 E2 =    -0.2038499285D+01 EUMP2 =    -0.66332123955028D+03
 SCF Done:  E(RHF) =  -661.295022933     A.U. after   14 cycles
 E2 =    -0.2036281859D+01 EUMP2 =    -0.66333130479195D+03
 SCF Done:  E(RHF) =  -661.295599013     A.U. after   12 cycles
 E2 =    -0.2035850959D+01 EUMP2 =    -0.66333144997273D+03
 SCF Done:  E(RHF) =  -661.295977737     A.U. after   11 cycles
 E2 =    -0.2035489578D+01 EUMP2 =    -0.66333146731536D+03
 SCF Done:  E(RHF) =  -661.296011655     A.U. after   10 cycles
 E2 =    -0.2035457724D+01 EUMP2 =    -0.66333146937922D+03
 SCF Done:  E(RHF) =  -661.296011639     A.U. after    9 cycles
 E2 =    -0.2035457964D+01 EUMP2 =    -0.66333146960232D+03
 Optimization completed.
    -- Stationary point found.

                          Input orientation:
 ---------------------------------------------------------------------
 Center     Atomic      Atomic             Coordinates (Angstroms)
 Number     Number       Type             X           Y           Z
 ---------------------------------------------------------------------
      1          8           0       -3.483631   -1.344568   -0.562835
      2          7           0       -3.088044   -0.190308   -0.309347
      3          8           0       -3.842178    0.800926   -0.265614
      4          6           0       -1.667969   -0.020151   -0.039832
      5          6           0       -1.277987    1.263947    0.241759
      6          7           0       -0.058596    1.708537    0.589466
      7          6           0        1.232490    1.040035    0.477276
      8          1           0        1.906246    1.582998    1.152998
      9          6           0        1.822044    1.037914   -0.935681
     10          6           0        3.223435    0.414864   -0.886778
     11          6           0        3.218509   -0.978370   -0.253482
     12          6           0        2.538634   -0.975719    1.115076
     13          6           0        1.114205   -0.425329    0.961525
     14          1           0        0.577855   -0.434275    1.921216
     15          7           0        0.436591   -1.300252    0.009981
     16          6           0       -0.819087   -1.170739   -0.271494
     17          1           0       -2.064874    2.011781    0.283655
     18          1           0       -0.008619    2.710975    0.737411
     19          1           0        1.160960    0.464995   -1.593493
     20          1           0        1.870005    2.062946   -1.325245
     21          1           0        3.642351    0.370239   -1.898702
     22          1           0        3.880844    1.077618   -0.306237
     23          1           0        2.680334   -1.676486   -0.901088
     24          1           0        4.248258   -1.344965   -0.163299
     25          1           0        2.485442   -1.993193    1.516140
     26          1           0        3.101995   -0.364641    1.833351
     27          1           0       -1.262219   -1.966767   -0.869717
 ---------------------------------------------------------------------

 Alpha  occ. eigenvalues --  -20.59315 -20.58980 -15.84793 -15.64043 -15.55845
 Alpha  occ. eigenvalues --  -11.34992 -11.29630 -11.29614 -11.28722 -11.27076
 Alpha  occ. eigenvalues --  -11.23847 -11.23212 -11.22570 -11.21916  -1.57198
 Alpha  occ. eigenvalues --   -1.36788  -1.30858  -1.22839  -1.14716  -1.09741
 Alpha  occ. eigenvalues --   -1.02733  -1.01267  -0.94461  -0.89737  -0.85523
 Alpha  occ. eigenvalues --   -0.82361  -0.78604  -0.77455  -0.74963  -0.71817
 Alpha  occ. eigenvalues --   -0.69782  -0.69481  -0.67894  -0.64779  -0.63915
 Alpha  occ. eigenvalues --   -0.62422  -0.60125  -0.57854  -0.56729  -0.55106
 Alpha  occ. eigenvalues --   -0.54421  -0.50735  -0.50448  -0.48779  -0.48194
 Alpha  occ. eigenvalues --   -0.47372  -0.46159  -0.45863  -0.43742  -0.41776
 Alpha  occ. eigenvalues --   -0.39122  -0.33754
 Alpha virt. eigenvalues --    0.07260   0.11538   0.17429   0.22013   0.24183
 Alpha virt. eigenvalues --    0.25823   0.27235   0.28694   0.29227   0.29595
 Alpha virt. eigenvalues --    0.30732   0.31939   0.32125   0.32866   0.33817

 Mulliken charges:
               1
     1  O   -0.466768
     2  N    0.493484
     3  O   -0.503271
     4  C    0.005124
     5  C    0.181807
     6  N   -0.766873
     7  C    0.042654
     8  H    0.186479
     9  C   -0.306304
    10  C   -0.326282
    11  C   -0.323234
    12  C   -0.303656
    13  C   -0.028436
    14  H    0.194986
    15  N   -0.525574
    16  C    0.120832
    17  H    0.295089
    18  H    0.400417
    19  H    0.191983
    20  H    0.159609
    21  H    0.174535
    22  H    0.149538
    23  H    0.203808
    24  H    0.163443
    25  H    0.185525
    26  H    0.149855
    27  H    0.251231
 Sum of Mulliken charges =  -0.00000

 Dipole moment (field-independent basis, Debye):
    X=              5.3537    Y=              4.6546    Z=              1.5152  Tot=              7.2541
 Quadrupole moment (field-independent basis, Debye-Ang):
   XX=           -105.6346   YY=            -78.9553   ZZ=            -81.9870
   XY=             -1.0611   XZ=             -2.0738   YZ=              1.6166

 Normal termination of Gaussian 16 at Sun Jul  2 15:59:38 2023.
