 Gaussian 16, Revision C.02,
 Gaussian 16:  ES64L-G16RevC.02  7-Dec-2021

 ---------------------------------------------------------
 #MP2/6-31G* SCF=Tight Opt=(ModRedun, MaxCycle=20 ) NoSymm
 ---------------------------------------------------------

 --------
 MolName:
 --------
 Symbolic Z-matrix:
 Charge =  0 Multiplicity = 1

 SCF Done:  E(RHF) =  -661.281713191     A.U. after   16 cycles
 E2 =    -0.2037321094D+01 EUMP2 =    -0.66331903428454D+03
 SCF Done:  E(RHF) =  -661.298684068     A.U. after   14 cycles
 E2 =    -0.2032962383D+01 EUMP2 =    -0.66333164645193D+03
 SCF Done:  E(RHF) =  -661.299057305     A.U. after   14 cycles
 E2 =    -0.2033894343D+01 EUMP2 =    -0.66333295164744D+03
 SCF Done:  E(RHF) =  -661.286025876     A.U. after   17 cycles
 E2 =    -0.2036906106D+01 EUMP2 =    -0.66332293198193D+03
 SCF Done:  E(RHF) =  -661.298654884     A.U. after   14 cycles
 E2 =    -0.2035061204D+01 EUMP2 =    -0.66333371608819D+03
 SCF Done:  E(RHF) =  -661.298723755     A.U. after   12 cycles
 E2 =    -0.2035094825D+01 EUMP2 =    -0.66333381858047D+03
 SCF Done:  E(RHF) =  -661.299140720     A.U. after   11 cycles
 E2 =    -0.2034707461D+01 EUMP2 =    -0.66333384818083D+03
 SCF Done:  E(RHF) =  -661.299243874     A.U. after   11 cycles
 E2 =    -0.2034607804D+01 EUMP2 =    -0.66333385167852D+03
 SCF Done:  E(RHF) =  -661.299230788     A.U. after    9 cycles
 E2 =    -0.2034621269D+01 EUMP2 =    -0.66333385205681D+03
 Optimization completed.
    -- Stationary point found.

                          Input orientation:
 ---------------------------------------------------------------------
 Center     Atomic      Atomic             Coordinates (Angstroms)
 Number     Number       Type             X           Y           Z
 ---------------------------------------------------------------------
      1          8           0       -3.499270   -1.367154   -0.467628
      2          7           0       -3.108119   -0.211518   -0.212950
      3          8           0       -3.874418    0.765205   -0.102566
      4          6           0       -1.678401   -0.023715   -0.023133
      5          6           0       -1.291096    1.261525    0.257194
      6          7           0       -0.056334    1.731658    0.489468
      7          6           0        1.219658    1.032418    0.420655
      8          1           0        1.881672    1.567352    1.116169
      9          6           0        1.866157    1.037272   -0.965493
     10          6           0        3.267027    0.421709   -0.859991
     11          6           0        3.239872   -0.973232   -0.230276
     12          6           0        2.502324   -0.977095    1.109235
     13          6           0        1.084626   -0.425246    0.913982
     14          1           0        0.528085   -0.419701    1.863445
     15          7           0        0.423388   -1.309796   -0.040135
     16          6           0       -0.828254   -1.155912   -0.328782
     17          1           0       -2.084356    1.998535    0.346789
     18          1           0       -0.003480    2.727819    0.669115
     19          1           0        1.237195    0.462356   -1.652938
     20          1           0        1.923546    2.063866   -1.348890
     21          1           0        3.728351    0.380543   -1.853365
     22          1           0        3.896853    1.085638   -0.250914
     23          1           0        2.730570   -1.670076   -0.902650
     24          1           0        4.265065   -1.338948   -0.097050
     25          1           0        2.432691   -1.996771    1.502034
     26          1           0        3.039719   -0.372624    1.852754
     27          1           0       -1.280092   -1.932084   -0.946072
 ---------------------------------------------------------------------

 Alpha  occ. eigenvalues --  -20.59248 -20.58915 -15.84738 -15.64156 -15.55939
 Alpha  occ. eigenvalues --  -11.35020 -11.29637 -11.29560 -11.28640 -11.27100
 Alpha  occ. eigenvalues --  -11.23791 -11.23209 -11.22627 -11.21996  -1.57136
 Alpha  occ. eigenvalues --   -1.36724  -1.30962  -1.22946  -1.14714  -1.09780
 Alpha  occ. eigenvalues --   -1.02783  -1.01294  -0.94479  -0.89715  -0.85554
 Alpha  occ. eigenvalues --   -0.82408  -0.78635  -0.77432  -0.75115  -0.71974
 Alpha  occ. eigenvalues --   -0.69753  -0.69446  -0.67855  -0.64836  -0.63849
 Alpha  occ. eigenvalues --   -0.62394  -0.60195  -0.57801  -0.56855  -0.55094
 Alpha  occ. eigenvalues --   -0.54507  -0.50715  -0.50324  -0.48700  -0.48145
 Alpha  occ. eigenvalues --   -0.47356  -0.46141  -0.45963  -0.43694  -0.41726
 Alpha  occ. eigenvalues --   -0.39480  -0.33758
 Alpha virt. eigenvalues --    0.07439   0.11702   0.17356   0.21932   0.24160
 Alpha virt. eigenvalues --    0.25755   0.27215   0.28715   0.29138   0.29604
 Alpha virt. eigenvalues --    0.30719   0.31871   0.32080   0.32830   0.33876

 Mulliken charges:
               1
     1  O   -0.467168
     2  N    0.492494
     3  O   -0.504117
     4  C    0.000434
     5  C    0.189340
     6  N   -0.777806
     7  C    0.054048
     8  H    0.183448
     9  C   -0.303751
    10  C   -0.327114
    11  C   -0.322335
    12  C   -0.305256
    13  C   -0.033042
    14  H    0.192352
    15  N   -0.519551
    16  C    0.120863
    17  H    0.295428
    18  H    0.403809
    19  H    0.191076
    20  H    0.160227
    21  H    0.174560
    22  H    0.149418
    23  H    0.202016
    24  H    0.163955
    25  H    0.186362
    26  H    0.150105
    27  H    0.250206
 Sum of Mulliken charges =  -0.00000

 Dipole moment (field-independent basis, Debye):
    X=              5.4006    Y=              4.7528    Z=              1.3849  Tot=              7.3262
 Quadrupole moment (field-independent basis, Debye-Ang):
   XX=           -106.0186   YY=            -79.0156   ZZ=            -81.7047
   XY=             -1.4202   XZ=             -1.0991   YZ=              1.6827

 Normal termination of Gaussian 16 at Sun Jul  2 15:39:19 2023.
