 Gaussian 16, Revision C.02,
 Gaussian 16:  ES64L-G16RevC.02  7-Dec-2021

 ---------------------------------------------------------
 #MP2/6-31G* SCF=Tight Opt=(ModRedun, MaxCycle=20 ) NoSymm
 ---------------------------------------------------------

 --------
 MolName:
 --------
 Symbolic Z-matrix:
 Charge =  0 Multiplicity = 1

 SCF Done:  E(RHF) =  -661.281646769     A.U. after   16 cycles
 E2 =    -0.2037239741D+01 EUMP2 =    -0.66331888651083D+03
 SCF Done:  E(RHF) =  -661.298782011     A.U. after   15 cycles
 E2 =    -0.2032583354D+01 EUMP2 =    -0.66333136536486D+03
 SCF Done:  E(RHF) =  -661.299447315     A.U. after   15 cycles
 E2 =    -0.2033336603D+01 EUMP2 =    -0.66333278391791D+03
 SCF Done:  E(RHF) =  -661.289432013     A.U. after   17 cycles
 E2 =    -0.2035427432D+01 EUMP2 =    -0.66332485944506D+03
 SCF Done:  E(RHF) =  -661.299697105     A.U. after   14 cycles
 E2 =    -0.2034682603D+01 EUMP2 =    -0.66333437970748D+03
 SCF Done:  E(RHF) =  -661.299837798     A.U. after   13 cycles
 E2 =    -0.2034726276D+01 EUMP2 =    -0.66333456407413D+03
 SCF Done:  E(RHF) =  -661.300393514     A.U. after   12 cycles
 E2 =    -0.2034242242D+01 EUMP2 =    -0.66333463575573D+03
 SCF Done:  E(RHF) =  -661.300406323     A.U. after   12 cycles
 E2 =    -0.2034241839D+01 EUMP2 =    -0.66333464816123D+03
 SCF Done:  E(RHF) =  -661.300375908     A.U. after   10 cycles
 E2 =    -0.2034273312D+01 EUMP2 =    -0.66333464921957D+03
 SCF Done:  E(RHF) =  -661.300362222     A.U. after    9 cycles
 E2 =    -0.2034287198D+01 EUMP2 =    -0.66333464941948D+03
 Optimization completed.
    -- Stationary point found.

                          Input orientation:
 ---------------------------------------------------------------------
 Center     Atomic      Atomic             Coordinates (Angstroms)
 Number     Number       Type             X           Y           Z
 ---------------------------------------------------------------------
      1          8           0       -3.506645   -1.390743   -0.370862
      2          7           0       -3.121041   -0.232574   -0.118333
      3          8           0       -3.895456    0.728370    0.055701
      4          6           0       -1.686645   -0.023956   -0.009557
      5          6           0       -1.301487    1.260539    0.275348
      6          7           0       -0.057273    1.750168    0.386196
      7          6           0        1.205607    1.024058    0.359224
      8          1           0        1.853345    1.553139    1.074545
      9          6           0        1.909040    1.035057   -0.996635
     10          6           0        3.307442    0.428467   -0.832579
     11          6           0        3.259512   -0.967584   -0.205871
     12          6           0        2.464568   -0.978080    1.101624
     13          6           0        1.054856   -0.424455    0.865198
     14          1           0        0.478320   -0.403097    1.803609
     15          7           0        0.408334   -1.317968   -0.090926
     16          6           0       -0.839009   -1.138247   -0.386268
     17          1           0       -2.096263    1.987425    0.418987
     18          1           0        0.001572    2.735347    0.615287
     19          1           0        1.314796    0.457532   -1.712759
     20          1           0        1.974968    2.062962   -1.374440
     21          1           0        3.811354    0.390297   -1.805126
     22          1           0        3.907239    1.094841   -0.196402
     23          1           0        2.781821   -1.664434   -0.901645
     24          1           0        4.278690   -1.331055   -0.028732
     25          1           0        2.379155   -1.999959    1.485592
     26          1           0        2.974531   -0.380131    1.869579
     27          1           0       -1.300320   -1.892899   -1.022744
 ---------------------------------------------------------------------

 Alpha  occ. eigenvalues --  -20.59236 -20.58903 -15.84722 -15.64136 -15.56112
 Alpha  occ. eigenvalues --  -11.35018 -11.29623 -11.29559 -11.28627 -11.27134
 Alpha  occ. eigenvalues --  -11.23729 -11.23208 -11.22692 -11.22089  -1.57115
 Alpha  occ. eigenvalues --   -1.36708  -1.30977  -1.23065  -1.14704  -1.09820
 Alpha  occ. eigenvalues --   -1.02806  -1.01309  -0.94482  -0.89684  -0.85566
 Alpha  occ. eigenvalues --   -0.82448  -0.78609  -0.77411  -0.75203  -0.72020
 Alpha  occ. eigenvalues --   -0.69770  -0.69437  -0.67820  -0.64893  -0.63778
 Alpha  occ. eigenvalues --   -0.62367  -0.60282  -0.57700  -0.57001  -0.55077
 Alpha  occ. eigenvalues --   -0.54582  -0.50762  -0.50109  -0.48656  -0.48102
 Alpha  occ. eigenvalues --   -0.47371  -0.46146  -0.46045  -0.43677  -0.41696
 Alpha  occ. eigenvalues --   -0.39849  -0.33830
 Alpha virt. eigenvalues --    0.07464   0.11800   0.17307   0.21848   0.24112
 Alpha virt. eigenvalues --    0.25664   0.27134   0.28694   0.29044   0.29636
 Alpha virt. eigenvalues --    0.30682   0.31798   0.32036   0.32767   0.33950

 Mulliken charges:
               1
     1  O   -0.467241
     2  N    0.491281
     3  O   -0.504057
     4  C    0.000463
     5  C    0.188878
     6  N   -0.780292
     7  C    0.060270
     8  H    0.180081
     9  C   -0.301427
    10  C   -0.327944
    11  C   -0.321490
    12  C   -0.306659
    13  C   -0.037195
    14  H    0.189959
    15  N   -0.511204
    16  C    0.120056
    17  H    0.295295
    18  H    0.404870
    19  H    0.190189
    20  H    0.161383
    21  H    0.174649
    22  H    0.149362
    23  H    0.199939
    24  H    0.164542
    25  H    0.187065
    26  H    0.150347
    27  H    0.248881
 Sum of Mulliken charges =  -0.00000

 Dipole moment (field-independent basis, Debye):
    X=              5.4161    Y=              4.7966    Z=              1.2810  Tot=              7.3473
 Quadrupole moment (field-independent basis, Debye-Ang):
   XX=           -106.1408   YY=            -79.2261   ZZ=            -81.5007
   XY=             -1.7685   XZ=             -0.1327   YZ=              1.8564

 Normal termination of Gaussian 16 at Sun Jul  2 14:37:37 2023.
