 Gaussian 16, Revision C.02,
 Gaussian 16:  ES64L-G16RevC.02  7-Dec-2021

 ---------------------------------------------------------
 #MP2/6-31G* SCF=Tight Opt=(ModRedun, MaxCycle=20 ) NoSymm
 ---------------------------------------------------------

 --------
 MolName:
 --------
 Symbolic Z-matrix:
 Charge =  0 Multiplicity = 1

 SCF Done:  E(RHF) =  -661.278595157     A.U. after   16 cycles
 E2 =    -0.2037483615D+01 EUMP2 =    -0.66331607877232D+03
 SCF Done:  E(RHF) =  -661.296113210     A.U. after   15 cycles
 E2 =    -0.2032682815D+01 EUMP2 =    -0.66332879602483D+03
 SCF Done:  E(RHF) =  -661.297232785     A.U. after   15 cycles
 E2 =    -0.2033328772D+01 EUMP2 =    -0.66333056155712D+03
 SCF Done:  E(RHF) =  -661.290042690     A.U. after   17 cycles
 E2 =    -0.2035878678D+01 EUMP2 =    -0.66332592136813D+03
 SCF Done:  E(RHF) =  -661.298204962     A.U. after   14 cycles
 E2 =    -0.2035000610D+01 EUMP2 =    -0.66333320557187D+03
 SCF Done:  E(RHF) =  -661.299004071     A.U. after   13 cycles
 E2 =    -0.2034663337D+01 EUMP2 =    -0.66333366740760D+03
 SCF Done:  E(RHF) =  -661.299523072     A.U. after   13 cycles
 E2 =    -0.2034260803D+01 EUMP2 =    -0.66333378387558D+03
 SCF Done:  E(RHF) =  -661.299481291     A.U. after   12 cycles
 E2 =    -0.2034316161D+01 EUMP2 =    -0.66333379745269D+03
 SCF Done:  E(RHF) =  -661.299433645     A.U. after   10 cycles
 E2 =    -0.2034366141D+01 EUMP2 =    -0.66333379978574D+03
 SCF Done:  E(RHF) =  -661.299396749     A.U. after    9 cycles
 E2 =    -0.2034403196D+01 EUMP2 =    -0.66333379994571D+03
 Optimization completed.
    -- Stationary point found.

                          Input orientation:
 ---------------------------------------------------------------------
 Center     Atomic      Atomic             Coordinates (Angstroms)
 Number     Number       Type             X           Y           Z
 ---------------------------------------------------------------------
      1          8           0       -3.506166   -1.415908   -0.269614
      2          7           0       -3.127606   -0.253949   -0.023181
      3          8           0       -3.906164    0.689734    0.214037
      4          6           0       -1.693874   -0.020534   -0.000354
      5          6           0       -1.308746    1.261519    0.291496
      6          7           0       -0.061713    1.763461    0.279353
      7          6           0        1.189310    1.012206    0.293850
      8          1           0        1.818944    1.535591    1.031565
      9          6           0        1.953382    1.033029   -1.025641
     10          6           0        3.346990    0.437861   -0.798423
     11          6           0        3.278599   -0.960494   -0.178019
     12          6           0        2.422536   -0.982014    1.091623
     13          6           0        1.022510   -0.425833    0.813494
     14          1           0        0.426084   -0.388675    1.739800
     15          7           0        0.389827   -1.326278   -0.146089
     16          6           0       -0.852326   -1.117244   -0.447806
     17          1           0       -2.098803    1.979855    0.492755
     18          1           0        0.010462    2.736403    0.553253
     19          1           0        1.399732    0.453745   -1.772852
     20          1           0        2.027027    2.063176   -1.395245
     21          1           0        3.896476    0.405316   -1.746126
     22          1           0        3.911595    1.106591   -0.133152
     23          1           0        2.838156   -1.656830   -0.899112
     24          1           0        4.289550   -1.320330    0.046345
     25          1           0        2.321371   -2.007280    1.462668
     26          1           0        2.901364   -0.393001    1.886326
     27          1           0       -1.325477   -1.848109   -1.102949
 ---------------------------------------------------------------------

 Alpha  occ. eigenvalues --  -20.59284 -20.58948 -15.84750 -15.63979 -15.56369
 Alpha  occ. eigenvalues --  -11.34985 -11.29616 -11.29580 -11.28688 -11.27177
 Alpha  occ. eigenvalues --  -11.23680 -11.23221 -11.22765 -11.22204  -1.57148
 Alpha  occ. eigenvalues --   -1.36752  -1.30908  -1.23207  -1.14690  -1.09868
 Alpha  occ. eigenvalues --   -1.02808  -1.01323  -0.94470  -0.89642  -0.85583
 Alpha  occ. eigenvalues --   -0.82480  -0.78514  -0.77402  -0.75230  -0.71945
 Alpha  occ. eigenvalues --   -0.69841  -0.69465  -0.67800  -0.64952  -0.63692
 Alpha  occ. eigenvalues --   -0.62354  -0.60400  -0.57566  -0.57163  -0.55035
 Alpha  occ. eigenvalues --   -0.54680  -0.50823  -0.49859  -0.48654  -0.48066
 Alpha  occ. eigenvalues --   -0.47419  -0.46221  -0.46082  -0.43695  -0.41703
 Alpha  occ. eigenvalues --   -0.40246  -0.33970
 Alpha virt. eigenvalues --    0.07334   0.11830   0.17302   0.21750   0.24005
 Alpha virt. eigenvalues --    0.25500   0.27053   0.28604   0.28954   0.29667
 Alpha virt. eigenvalues --    0.30616   0.31701   0.32005   0.32685   0.33998

 Mulliken charges:
               1
     1  O   -0.467000
     2  N    0.489917
     3  O   -0.502978
     4  C    0.005415
     5  C    0.180036
     6  N   -0.772434
     7  C    0.059758
     8  H    0.176362
     9  C   -0.299365
    10  C   -0.328780
    11  C   -0.320665
    12  C   -0.307884
    13  C   -0.040945
    14  H    0.188352
    15  N   -0.500540
    16  C    0.118448
    17  H    0.294656
    18  H    0.403089
    19  H    0.189249
    20  H    0.162656
    21  H    0.174837
    22  H    0.149494
    23  H    0.197406
    24  H    0.165278
    25  H    0.187715
    26  H    0.150669
    27  H    0.247254
 Sum of Mulliken charges =  -0.00000

 Dipole moment (field-independent basis, Debye):
    X=              5.4066    Y=              4.7847    Z=              1.1605  Tot=              7.3124
 Quadrupole moment (field-independent basis, Debye-Ang):
   XX=           -105.9829   YY=            -79.5766   ZZ=            -81.4339
   XY=             -2.0940   XZ=              0.8716   YZ=              2.0010

 Normal termination of Gaussian 16 at Sun Jul  2 15:00:49 2023.
