 Gaussian 16, Revision C.02,
 Gaussian 16:  ES64L-G16RevC.02  7-Dec-2021

 ---------------------------------------------------------
 #MP2/6-31G* SCF=Tight Opt=(ModRedun, MaxCycle=20 ) NoSymm
 ---------------------------------------------------------

 --------
 MolName:
 --------
 Symbolic Z-matrix:
 Charge =  0 Multiplicity = 1

 SCF Done:  E(RHF) =  -661.273044212     A.U. after   16 cycles
 E2 =    -0.2038023495D+01 EUMP2 =    -0.66331106770684D+03
 SCF Done:  E(RHF) =  -661.290949817     A.U. after   15 cycles
 E2 =    -0.2033235739D+01 EUMP2 =    -0.66332418555684D+03
 SCF Done:  E(RHF) =  -661.292900358     A.U. after   15 cycles
 E2 =    -0.2033817742D+01 EUMP2 =    -0.66332671809957D+03
 SCF Done:  E(RHF) =  -661.287670414     A.U. after   17 cycles
 E2 =    -0.2036020827D+01 EUMP2 =    -0.66332369124092D+03
 SCF Done:  E(RHF) =  -661.294802875     A.U. after   14 cycles
 E2 =    -0.2035427766D+01 EUMP2 =    -0.66333023064037D+03
 SCF Done:  E(RHF) =  -661.295811588     A.U. after   13 cycles
 E2 =    -0.2035098312D+01 EUMP2 =    -0.66333090990040D+03
 SCF Done:  E(RHF) =  -661.296259291     A.U. after   14 cycles
 E2 =    -0.2034802716D+01 EUMP2 =    -0.66333106200779D+03
 SCF Done:  E(RHF) =  -661.296251657     A.U. after   12 cycles
 E2 =    -0.2034831613D+01 EUMP2 =    -0.66333108326937D+03
 SCF Done:  E(RHF) =  -661.296207586     A.U. after   10 cycles
 E2 =    -0.2034877941D+01 EUMP2 =    -0.66333108552651D+03
 Optimization completed.
    -- Stationary point found.

                          Input orientation:
 ---------------------------------------------------------------------
 Center     Atomic      Atomic             Coordinates (Angstroms)
 Number     Number       Type             X           Y           Z
 ---------------------------------------------------------------------
      1          8           0       -3.498648   -1.442555   -0.154888
      2          7           0       -3.127770   -0.275632    0.080383
      3          8           0       -3.905664    0.650418    0.379752
      4          6           0       -1.701518   -0.014491    0.010721
      5          6           0       -1.312922    1.264843    0.305579
      6          7           0       -0.069785    1.769333    0.168919
      7          6           0        1.170123    0.994867    0.222298
      8          1           0        1.777723    1.512803    0.984688
      9          6           0        1.998449    1.031329   -1.053667
     10          6           0        3.384804    0.451929   -0.758119
     11          6           0        3.298095   -0.950374   -0.148153
     12          6           0        2.377019   -0.989613    1.076517
     13          6           0        0.987700   -0.430653    0.758243
     14          1           0        0.374188   -0.376647    1.672897
     15          7           0        0.365538   -1.337536   -0.203364
     16          6           0       -0.871221   -1.095221   -0.507472
     17          1           0       -2.090719    1.977774    0.565097
     18          1           0        0.024069    2.734726    0.464017
     19          1           0        1.493319    0.451204   -1.834544
     20          1           0        2.077455    2.064984   -1.411737
     21          1           0        3.982945    0.429060   -1.676065
     22          1           0        3.907214    1.123188   -0.061732
     23          1           0        2.902548   -1.645541   -0.896598
     24          1           0        4.298348   -1.304026    0.127083
     25          1           0        2.261117   -2.019875    1.428968
     26          1           0        2.820177   -0.413116    1.900798
     27          1           0       -1.359574   -1.798198   -1.181638
 ---------------------------------------------------------------------

 Alpha  occ. eigenvalues --  -20.59355 -20.59011 -15.84793 -15.63725 -15.56687
 Alpha  occ. eigenvalues --  -11.34931 -11.29718 -11.29520 -11.28789 -11.27222
 Alpha  occ. eigenvalues --  -11.23677 -11.23263 -11.22842 -11.22349  -1.57202
 Alpha  occ. eigenvalues --   -1.36816  -1.30795  -1.23354  -1.14674  -1.09927
 Alpha  occ. eigenvalues --   -1.02811  -1.01347  -0.94453  -0.89578  -0.85638
 Alpha  occ. eigenvalues --   -0.82503  -0.78375  -0.77404  -0.75201  -0.71771
 Alpha  occ. eigenvalues --   -0.69936  -0.69506  -0.67797  -0.65017  -0.63593
 Alpha  occ. eigenvalues --   -0.62371  -0.60558  -0.57416  -0.57333  -0.54963
 Alpha  occ. eigenvalues --   -0.54829  -0.50898  -0.49571  -0.48672  -0.48027
 Alpha  occ. eigenvalues --   -0.47472  -0.46335  -0.46116  -0.43723  -0.41740
 Alpha  occ. eigenvalues --   -0.40663  -0.34134
 Alpha virt. eigenvalues --    0.07100   0.11817   0.17343   0.21611   0.23806
 Alpha virt. eigenvalues --    0.25256   0.27011   0.28442   0.28864   0.29667
 Alpha virt. eigenvalues --    0.30514   0.31561   0.31996   0.32606   0.33962

 Mulliken charges:
               1
     1  O   -0.466706
     2  N    0.488513
     3  O   -0.501412
     4  C    0.013350
     5  C    0.166435
     6  N   -0.758900
     7  C    0.055127
     8  H    0.172187
     9  C   -0.297673
    10  C   -0.329636
    11  C   -0.319843
    12  C   -0.308993
    13  C   -0.044291
    14  H    0.187976
    15  N   -0.488311
    16  C    0.116655
    17  H    0.293750
    18  H    0.399470
    19  H    0.188298
    20  H    0.163687
    21  H    0.175191
    22  H    0.149926
    23  H    0.194303
    24  H    0.166225
    25  H    0.188423
    26  H    0.151070
    27  H    0.245181
 Sum of Mulliken charges =  -0.00000

 Dipole moment (field-independent basis, Debye):
    X=              5.3953    Y=              4.7516    Z=              0.9849  Tot=              7.2565
 Quadrupole moment (field-independent basis, Debye-Ang):
   XX=           -105.5875   YY=            -79.9762   ZZ=            -81.5519
   XY=             -2.3940   XZ=              1.9457   YZ=              2.0363

 Normal termination of Gaussian 16 at Sun Jul  2 15:20:42 2023.
