 Gaussian 16, Revision C.02,
 Gaussian 16:  ES64L-G16RevC.02  7-Dec-2021

 ---------------------------------------------------------
 #MP2/6-31G* SCF=Tight Opt=(ModRedun, MaxCycle=20 ) NoSymm
 ---------------------------------------------------------

 --------
 MolName:
 --------
 Symbolic Z-matrix:
 Charge =  0 Multiplicity = 1

 SCF Done:  E(RHF) =  -661.269076235     A.U. after   16 cycles
 E2 =    -0.2038508292D+01 EUMP2 =    -0.66330758452616D+03
 SCF Done:  E(RHF) =  -661.289944529     A.U. after   15 cycles
 E2 =    -0.2034623673D+01 EUMP2 =    -0.66332456820222D+03
 SCF Done:  E(RHF) =  -661.292841991     A.U. after   15 cycles
 E2 =    -0.2035674920D+01 EUMP2 =    -0.66332851691088D+03
 SCF Done:  E(RHF) =  -661.281263739     A.U. after   18 cycles
 E2 =    -0.2038857676D+01 EUMP2 =    -0.66332012141465D+03
 SCF Done:  E(RHF) =  -661.292510992     A.U. after   15 cycles
 E2 =    -0.2037067176D+01 EUMP2 =    -0.66332957816798D+03
 SCF Done:  E(RHF) =  -661.293459545     A.U. after   13 cycles
 E2 =    -0.2036387695D+01 EUMP2 =    -0.66332984724005D+03
 SCF Done:  E(RHF) =  -661.293894790     A.U. after   11 cycles
 E2 =    -0.2035971129D+01 EUMP2 =    -0.66332986591851D+03
 SCF Done:  E(RHF) =  -661.293919587     A.U. after   10 cycles
 E2 =    -0.2035949607D+01 EUMP2 =    -0.66332986919408D+03
 SCF Done:  E(RHF) =  -661.293912656     A.U. after    9 cycles
 E2 =    -0.2035956897D+01 EUMP2 =    -0.66332986955336D+03
 Optimization completed.
    -- Stationary point found.

                          Input orientation:
 ---------------------------------------------------------------------
 Center     Atomic      Atomic             Coordinates (Angstroms)
 Number     Number       Type             X           Y           Z
 ---------------------------------------------------------------------
      1          8           0       -3.474905   -1.335324   -0.600427
      2          7           0       -3.077169   -0.181136   -0.350327
      3          8           0       -3.824415    0.816095   -0.337871
      4          6           0       -1.662772   -0.017309   -0.047005
      5          6           0       -1.271792    1.266062    0.236074
      6          7           0       -0.060459    1.697122    0.631168
      7          6           0        1.238057    1.044397    0.498938
      8          1           0        1.916685    1.593171    1.164074
      9          6           0        1.800890    1.035985   -0.925426
     10          6           0        3.201826    0.409753   -0.901212
     11          6           0        3.207785   -0.981312   -0.263497
     12          6           0        2.555092   -0.973030    1.117695
     13          6           0        1.128065   -0.423374    0.982910
     14          1           0        0.601294   -0.436609    1.947202
     15          7           0        0.442053   -1.294669    0.034209
     16          6           0       -0.815461   -1.176027   -0.243671
     17          1           0       -2.054575    2.018850    0.259452
     18          1           0       -0.011967    2.700717    0.774894
     19          1           0        1.125631    0.462714   -1.568042
     20          1           0        1.844214    2.059474   -1.319836
     21          1           0        3.600849    0.361397   -1.920999
     22          1           0        3.871440    1.073345   -0.335782
     23          1           0        2.656919   -1.681564   -0.897738
     24          1           0        4.239154   -1.347804   -0.192565
     25          1           0        2.509872   -1.988682    1.524363
     26          1           0        3.130196   -0.357519    1.822664
     27          1           0       -1.255486   -1.981733   -0.831246
 ---------------------------------------------------------------------

 Alpha  occ. eigenvalues --  -20.59353 -20.59016 -15.84823 -15.63956 -15.55818
 Alpha  occ. eigenvalues --  -11.34970 -11.29650 -11.29624 -11.28769 -11.27066
 Alpha  occ. eigenvalues --  -11.23863 -11.23211 -11.22544 -11.21879  -1.57233
 Alpha  occ. eigenvalues --   -1.36824  -1.30794  -1.22793  -1.14711  -1.09719
 Alpha  occ. eigenvalues --   -1.02705  -1.01248  -0.94449  -0.89743  -0.85500
 Alpha  occ. eigenvalues --   -0.82340  -0.78582  -0.77461  -0.74873  -0.71718
 Alpha  occ. eigenvalues --   -0.69803  -0.69501  -0.67912  -0.64752  -0.63949
 Alpha  occ. eigenvalues --   -0.62436  -0.60095  -0.57863  -0.56677  -0.55117
 Alpha  occ. eigenvalues --   -0.54369  -0.50799  -0.50439  -0.48819  -0.48216
 Alpha  occ. eigenvalues --   -0.47384  -0.46161  -0.45815  -0.43766  -0.41800
 Alpha  occ. eigenvalues --   -0.38951  -0.33762
 Alpha virt. eigenvalues --    0.07147   0.11451   0.17466   0.22048   0.24195
 Alpha virt. eigenvalues --    0.25855   0.27211   0.28686   0.29265   0.29604
 Alpha virt. eigenvalues --    0.30733   0.31972   0.32143   0.32874   0.33800

 Mulliken charges:
               1
     1  O   -0.466560
     2  N    0.493798
     3  O   -0.502714
     4  C    0.008271
     5  C    0.176943
     6  N   -0.760986
     7  C    0.036950
     8  H    0.187688
     9  C   -0.307516
    10  C   -0.325921
    11  C   -0.323668
    12  C   -0.302866
    13  C   -0.026088
    14  H    0.196135
    15  N   -0.527638
    16  C    0.120551
    17  H    0.294804
    18  H    0.398551
    19  H    0.192455
    20  H    0.159562
    21  H    0.174542
    22  H    0.149581
    23  H    0.204564
    24  H    0.163219
    25  H    0.185078
    26  H    0.149704
    27  H    0.251563
 Sum of Mulliken charges =  -0.00000

 Dipole moment (field-independent basis, Debye):
    X=              5.3245    Y=              4.6028    Z=              1.5822  Tot=              7.2138
 Quadrupole moment (field-independent basis, Debye-Ang):
   XX=           -105.4049   YY=            -78.9541   ZZ=            -82.1199
   XY=             -0.9108   XZ=             -2.4949   YZ=              1.6532

 Normal termination of Gaussian 16 at Sat Jul  1 03:18:34 2023.
