 Gaussian 16, Revision C.02,
 Gaussian 16:  ES64L-G16RevC.02  7-Dec-2021

 --------------------------
 # MP2/6-31G* Opt Scf=Tight
 --------------------------

 -----
 Title
 -----
 Symbolic Z-matrix:
 Charge =  0 Multiplicity = 1

 SCF Done:  E(RHF) =  -661.300337681     A.U. after   16 cycles
 E2 =    -0.2034311552D+01 EUMP2 =    -0.66333464923254D+03

 The electronic state is 1-A.
 Alpha  occ. eigenvalues --  -20.59236 -20.58906 -15.84721 -15.64137 -15.56111
 Alpha  occ. eigenvalues --  -11.35018 -11.29621 -11.29559 -11.28626 -11.27131
 Alpha  occ. eigenvalues --  -11.23726 -11.23206 -11.22690 -11.22087  -1.57107
 Alpha  occ. eigenvalues --   -1.36703  -1.30981  -1.23068  -1.14706  -1.09821
 Alpha  occ. eigenvalues --   -1.02806  -1.01309  -0.94484  -0.89686  -0.85566
 Alpha  occ. eigenvalues --   -0.82450  -0.78611  -0.77413  -0.75204  -0.72020
 Alpha  occ. eigenvalues --   -0.69771  -0.69432  -0.67820  -0.64896  -0.63779
 Alpha  occ. eigenvalues --   -0.62370  -0.60282  -0.57701  -0.57003  -0.55079
 Alpha  occ. eigenvalues --   -0.54581  -0.50761  -0.50112  -0.48656  -0.48103
 Alpha  occ. eigenvalues --   -0.47373  -0.46145  -0.46044  -0.43676  -0.41696
 Alpha  occ. eigenvalues --   -0.39850  -0.33830
 Alpha virt. eigenvalues --    0.07462   0.11799   0.17308   0.21849   0.24113
 Alpha virt. eigenvalues --    0.25663   0.27135   0.28698   0.29045   0.29637
 Alpha virt. eigenvalues --    0.30682   0.31800   0.32037   0.32768   0.33952

 Mulliken charges:
               1
     1  O   -0.467192
     2  N    0.491110
     3  O   -0.504048
     4  C    0.000539
     5  C    0.188924
     6  N   -0.780269
     7  C    0.060234
     8  H    0.180105
     9  C   -0.301437
    10  C   -0.327956
    11  C   -0.321499
    12  C   -0.306659
    13  C   -0.037261
    14  H    0.189976
    15  N   -0.511206
    16  C    0.120117
    17  H    0.295301
    18  H    0.404872
    19  H    0.190221
    20  H    0.161387
    21  H    0.174649
    22  H    0.149363
    23  H    0.199969
    24  H    0.164540
    25  H    0.187057
    26  H    0.150352
    27  H    0.248812
 Sum of Mulliken charges =  -0.00000

 Dipole moment (field-independent basis, Debye):
    X=              5.4158    Y=              4.7980    Z=              1.2776  Tot=              7.3474
 Quadrupole moment (field-independent basis, Debye-Ang):
   XX=           -106.1401   YY=            -79.2305   ZZ=            -81.4948
   XY=             -1.7711   XZ=             -0.1188   YZ=              1.8708

 Optimization completed.
    -- Stationary point found.

                         Standard orientation:
 ---------------------------------------------------------------------
 Center     Atomic      Atomic             Coordinates (Angstroms)
 Number     Number       Type             X           Y           Z
 ---------------------------------------------------------------------
      1          8           0       -3.506305   -1.391933   -0.365475
      2          7           0       -3.120820   -0.232880   -0.116296
      3          8           0       -3.895311    0.728556    0.055107
      4          6           0       -1.686470   -0.024064   -0.008295
      5          6           0       -1.301322    1.260553    0.276048
      6          7           0       -0.057133    1.750235    0.386481
      7          6           0        1.205734    1.024215    0.358843
      8          1           0        1.853963    1.553250    1.073679
      9          6           0        1.908191    1.034852   -0.997490
     10          6           0        3.306770    0.428533   -0.834041
     11          6           0        3.259293   -0.967422   -0.207117
     12          6           0        2.465149   -0.977651    1.100866
     13          6           0        1.055223   -0.424245    0.864994
     14          1           0        0.479140   -0.402842    1.803609
     15          7           0        0.408554   -1.317767   -0.090931
     16          6           0       -0.839035   -1.138299   -0.385381
     17          1           0       -2.096157    1.987277    0.419673
     18          1           0        0.001757    2.735430    0.615403
     19          1           0        1.313589    0.456913   -1.712921
     20          1           0        1.973744    2.062605   -1.375621
     21          1           0        3.810131    0.390235   -1.806820
     22          1           0        3.906719    1.095068   -0.198246
     23          1           0        2.781207   -1.664363   -0.902456
     24          1           0        4.278561   -1.330748   -0.030453
     25          1           0        2.379987   -1.999413    1.485075
     26          1           0        2.975457   -0.379412    1.868293
     27          1           0       -1.300575   -1.892924   -1.021616
 ---------------------------------------------------------------------

 Normal termination of Gaussian 16 at Sat Jun  3 15:23:27 2023.
