 Gaussian 16, Revision C.02,
 Gaussian 16:  ES64L-G16RevC.02  7-Dec-2021

 --------------------------
 # MP2/6-31G* Opt Scf=Tight
 --------------------------

 -----
 Title
 -----
 Symbolic Z-matrix:
 Charge =  0 Multiplicity = 1

 SCF Done:  E(RHF) =  -661.298249031     A.U. after   17 cycles
 E2 =    -0.2034258327D+01 EUMP2 =    -0.66333250735888D+03
 SCF Done:  E(RHF) =  -661.298268926     A.U. after    9 cycles
 E2 =    -0.2034238532D+01 EUMP2 =    -0.66333250745837D+03
 SCF Done:  E(RHF) =  -661.298284983     A.U. after   10 cycles
 E2 =    -0.2034220743D+01 EUMP2 =    -0.66333250572604D+03
 SCF Done:  E(RHF) =  -661.298265659     A.U. after   10 cycles
 E2 =    -0.2034241911D+01 EUMP2 =    -0.66333250757027D+03
 SCF Done:  E(RHF) =  -661.298267901     A.U. after    9 cycles
 E2 =    -0.2034239708D+01 EUMP2 =    -0.66333250760846D+03
 SCF Done:  E(RHF) =  -661.298267983     A.U. after    9 cycles
 E2 =    -0.2034239657D+01 EUMP2 =    -0.66333250763975D+03
 Optimization completed.
    -- Stationary point found.

                         Standard orientation:
 ---------------------------------------------------------------------
 Center     Atomic      Atomic             Coordinates (Angstroms)
 Number     Number       Type             X           Y           Z
 ---------------------------------------------------------------------
      1          8           0       -3.418846   -1.367993    0.537058
      2          7           0       -2.999778   -0.225047    0.268850
      3          8           0       -3.706933    0.798400    0.340951
      4          6           0       -1.610625   -0.053325   -0.137525
      5          6           0       -0.854477   -1.191912   -0.087693
      6          7           0        0.436447   -1.331566   -0.426570
      7          6           0        1.307805   -0.354675   -1.065024
      8          1           0        1.078767   -0.310366   -2.138756
      9          6           0        2.750643   -0.819812   -0.841394
     10          6           0        3.114241   -0.807996    0.646840
     11          6           0        2.854386    0.560278    1.280794
     12          6           0        1.430793    1.059452    1.020841
     13          6           0        1.146913    1.066993   -0.482775
     14          1           0        1.953303    1.644939   -0.958271
     15          7           0       -0.070333    1.782356   -0.819954
     16          6           0       -1.240421    1.272994   -0.608398
     17          1           0       -1.337254   -2.092885    0.280114
     18          1           0        0.817454   -2.265480   -0.324215
     19          1           0        2.891952   -1.821008   -1.271823
     20          1           0        3.417122   -0.149628   -1.396896
     21          1           0        2.531048   -1.569237    1.179605
     22          1           0        4.167584   -1.086471    0.767676
     23          1           0        3.048309    0.515808    2.358734
     24          1           0        3.563888    1.288352    0.865138
     25          1           0        0.694912    0.428718    1.532402
     26          1           0        1.303516    2.077631    1.404247
     27          1           0       -2.084267    1.924188   -0.832301
 ---------------------------------------------------------------------

 The electronic state is 1-A.
 Alpha  occ. eigenvalues --  -20.59246 -20.58872 -15.84707 -15.63935 -15.55859
 Alpha  occ. eigenvalues --  -11.34732 -11.29724 -11.29335 -11.28677 -11.26969
 Alpha  occ. eigenvalues --  -11.25429 -11.24408 -11.23685 -11.23240  -1.57105
 Alpha  occ. eigenvalues --   -1.36681  -1.31028  -1.22589  -1.15049  -1.10284
 Alpha  occ. eigenvalues --   -1.03681  -1.01645  -0.94310  -0.90283  -0.86700
 Alpha  occ. eigenvalues --   -0.82638  -0.79105  -0.78189  -0.74439  -0.72032
 Alpha  occ. eigenvalues --   -0.70018  -0.69752  -0.68455  -0.65533  -0.63491
 Alpha  occ. eigenvalues --   -0.62166  -0.59827  -0.58915  -0.57418  -0.56079
 Alpha  occ. eigenvalues --   -0.54355  -0.52068  -0.51128  -0.48692  -0.48463
 Alpha  occ. eigenvalues --   -0.47984  -0.47300  -0.46695  -0.43661  -0.41925
 Alpha  occ. eigenvalues --   -0.39260  -0.33570
 Alpha virt. eigenvalues --    0.07280   0.12100   0.17551   0.21603   0.23323
 Alpha virt. eigenvalues --    0.25341   0.26415   0.27782   0.28836   0.29665
 Alpha virt. eigenvalues --    0.30353   0.31328   0.31843   0.32265   0.32438

 Mulliken charges:
               1
     1  O   -0.503266
     2  N    0.492150
     3  O   -0.466265
     4  C    0.008870
     5  C    0.187245
     6  N   -0.772212
     7  C    0.042662
     8  H    0.209161
     9  C   -0.360274
    10  C   -0.313050
    11  C   -0.322860
    12  C   -0.314922
    13  C    0.002416
    14  H    0.182398
    15  N   -0.509997
    16  C    0.094359
    17  H    0.296791
    18  H    0.404265
    19  H    0.169751
    20  H    0.188667
    21  H    0.153671
    22  H    0.176933
    23  H    0.175318
    24  H    0.162021
    25  H    0.169080
    26  H    0.193818
    27  H    0.253271
 Sum of Mulliken charges =  -0.00000

 Dipole moment (field-independent basis, Debye):
    X=              6.9728    Y=             -3.5722    Z=             -0.7209  Tot=              7.8676
 Quadrupole moment (field-independent basis, Debye-Ang):
   XX=           -101.0944   YY=            -84.0436   ZZ=            -83.3367
   XY=             -2.8806   XZ=              3.2300   YZ=              3.0562

 Normal termination of Gaussian 16 at Sat Jun  3 15:31:08 2023.
