 Gaussian 16, Revision C.02,
 Gaussian 16:  ES64L-G16RevC.02  7-Dec-2021

 --------------------------
 # MP2/6-31G* Opt Scf=Tight
 --------------------------

 -----
 Title
 -----
 Symbolic Z-matrix:
 Charge =  0 Multiplicity = 1

 SCF Done:  E(RHF) =  -661.290525591     A.U. after   16 cycles
 E2 =    -0.2036369226D+01 EUMP2 =    -0.66332689481675D+03
 SCF Done:  E(RHF) =  -661.290538739     A.U. after    9 cycles
 E2 =    -0.2036356305D+01 EUMP2 =    -0.66332689504411D+03
 SCF Done:  E(RHF) =  -661.290530394     A.U. after    9 cycles
 E2 =    -0.2036364644D+01 EUMP2 =    -0.66332689503847D+03
 SCF Done:  E(RHF) =  -661.290529323     A.U. after    9 cycles
 E2 =    -0.2036365755D+01 EUMP2 =    -0.66332689507850D+03
 Optimization completed.
    -- Stationary point found.

                         Standard orientation:
 ---------------------------------------------------------------------
 Center     Atomic      Atomic             Coordinates (Angstroms)
 Number     Number       Type             X           Y           Z
 ---------------------------------------------------------------------
      1          8           0        3.858078    0.712510   -0.022608
      2          7           0        3.076067   -0.251651    0.087055
      3          8           0        3.452930   -1.425052    0.272762
      4          6           0        1.641766   -0.025790   -0.018869
      5          6           0        1.277848    1.270835   -0.282101
      6          7           0        0.038766    1.775006   -0.379323
      7          6           0       -1.206976    1.033989   -0.278252
      8          1           0       -1.928223    1.600942   -0.881554
      9          6           0       -1.738824    0.924882    1.158131
     10          6           0       -2.822817   -0.168679    1.256634
     11          6           0       -3.524423   -0.371172   -0.088961
     12          6           0       -2.536086   -0.853590   -1.170950
     13          6           0       -1.100986   -0.373410   -0.898390
     14          1           0       -0.529987   -0.303618   -1.836842
     15          7           0       -0.454418   -1.335690   -0.011249
     16          6           0        0.791082   -1.159084    0.298860
     17          1           0        2.082965    1.987275   -0.419446
     18          1           0       -0.023624    2.757699   -0.616107
     19          1           0       -0.903161    0.699974    1.828577
     20          1           0       -2.136077    1.902311    1.457765
     21          1           0       -2.360510   -1.112374    1.557166
     22          1           0       -3.549293    0.100165    2.031252
     23          1           0       -4.342365   -1.092053    0.014688
     24          1           0       -3.992260    0.573173   -0.397343
     25          1           0       -2.506744   -1.946408   -1.204984
     26          1           0       -2.861686   -0.502697   -2.158233
     27          1           0        1.256490   -1.945588    0.891852
 ---------------------------------------------------------------------

 The electronic state is 1-A.
 Alpha  occ. eigenvalues --  -20.59264 -20.58925 -15.84730 -15.64078 -15.56072
 Alpha  occ. eigenvalues --  -11.34953 -11.29526 -11.29464 -11.28745 -11.27003
 Alpha  occ. eigenvalues --  -11.23731 -11.22870 -11.22664 -11.22436  -1.57139
 Alpha  occ. eigenvalues --   -1.36732  -1.31078  -1.23022  -1.14514  -1.09641
 Alpha  occ. eigenvalues --   -1.02351  -1.00992  -0.94589  -0.90054  -0.85584
 Alpha  occ. eigenvalues --   -0.82554  -0.78644  -0.75982  -0.75326  -0.72471
 Alpha  occ. eigenvalues --   -0.69822  -0.69690  -0.68381  -0.65346  -0.63540
 Alpha  occ. eigenvalues --   -0.61579  -0.59497  -0.57890  -0.56966  -0.55328
 Alpha  occ. eigenvalues --   -0.54024  -0.51346  -0.50132  -0.48576  -0.48062
 Alpha  occ. eigenvalues --   -0.46933  -0.46196  -0.45730  -0.43681  -0.41378
 Alpha  occ. eigenvalues --   -0.39904  -0.33803
 Alpha virt. eigenvalues --    0.07433   0.11754   0.17205   0.21577   0.23998
 Alpha virt. eigenvalues --    0.26208   0.26973   0.27506   0.28887   0.29408
 Alpha virt. eigenvalues --    0.30381   0.31147   0.32209   0.33207   0.34796

 Mulliken charges:
               1
     1  O   -0.503962
     2  N    0.492317
     3  O   -0.466487
     4  C    0.002235
     5  C    0.183689
     6  N   -0.773838
     7  C    0.041879
     8  H    0.188340
     9  C   -0.295995
    10  C   -0.332265
    11  C   -0.340184
    12  C   -0.301005
    13  C   -0.040790
    14  H    0.191262
    15  N   -0.507964
    16  C    0.112140
    17  H    0.296720
    18  H    0.406366
    19  H    0.181743
    20  H    0.159321
    21  H    0.208611
    22  H    0.166693
    23  H    0.177383
    24  H    0.149491
    25  H    0.195221
    26  H    0.159475
    27  H    0.249607
 Sum of Mulliken charges =  -0.00000

 Dipole moment (field-independent basis, Debye):
    X=             -5.3680    Y=              4.9064    Z=             -1.1490  Tot=              7.3626
 Quadrupole moment (field-independent basis, Debye-Ang):
   XX=           -105.4549   YY=            -79.1236   ZZ=            -81.6220
   XY=              1.7898   XZ=             -0.1188   YZ=             -2.4250

 Normal termination of Gaussian 16 at Sat Jun  3 15:25:25 2023.
