 Gaussian 16, Revision C.02,
 Gaussian 16:  ES64L-G16RevC.02  7-Dec-2021

 --------------------------
 # MP2/6-31G* Opt Scf=Tight
 --------------------------

 -----
 Title
 -----
 Symbolic Z-matrix:
 Charge =  0 Multiplicity = 1

 SCF Done:  E(RHF) =  -661.288316705     A.U. after   17 cycles
 E2 =    -0.2036007684D+01 EUMP2 =    -0.66332432438903D+03
 SCF Done:  E(RHF) =  -661.288344341     A.U. after    9 cycles
 E2 =    -0.2035980223D+01 EUMP2 =    -0.66332432456332D+03
 Optimization completed.
    -- Stationary point found.

                         Standard orientation:
 ---------------------------------------------------------------------
 Center     Atomic      Atomic             Coordinates (Angstroms)
 Number     Number       Type             X           Y           Z
 ---------------------------------------------------------------------
      1          8           0       -3.711758    0.789213    0.285108
      2          7           0       -3.001863   -0.230264    0.188187
      3          8           0       -3.432134   -1.385098    0.376384
      4          6           0       -1.596286   -0.042084   -0.152317
      5          6           0       -0.836754   -1.179674   -0.078164
      6          7           0        0.462968   -1.308173   -0.384401
      7          6           0        1.296393   -0.306860   -1.033369
      8          1           0        0.981594   -0.215059   -2.081358
      9          6           0        2.767747   -0.744927   -0.945980
     10          6           0        3.461307   -0.239542    0.334379
     11          6           0        2.474552   -0.089166    1.493605
     12          6           0        1.371008    0.935797    1.159030
     13          6           0        1.157911    1.073092   -0.358102
     14          1           0        1.988419    1.666195   -0.764586
     15          7           0       -0.035909    1.830930   -0.682518
     16          6           0       -1.212010    1.307296   -0.543750
     17          1           0       -1.327766   -2.084890    0.267623
     18          1           0        0.864339   -2.230714   -0.262447
     19          1           0        2.821754   -1.840600   -1.007184
     20          1           0        3.295259   -0.370581   -1.829914
     21          1           0        4.275021   -0.920771    0.606095
     22          1           0        3.930528    0.731634    0.139723
     23          1           0        2.029066   -1.063782    1.719792
     24          1           0        3.007063    0.219010    2.399828
     25          1           0        0.425583    0.651158    1.631440
     26          1           0        1.630574    1.926036    1.547879
     27          1           0       -2.049894    1.968403   -0.759693
 ---------------------------------------------------------------------

 The electronic state is 1-A.
 Alpha  occ. eigenvalues --  -20.59259 -20.58897 -15.84710 -15.63868 -15.55825
 Alpha  occ. eigenvalues --  -11.34749 -11.29622 -11.29310 -11.28764 -11.26879
 Alpha  occ. eigenvalues --  -11.25538 -11.24296 -11.23737 -11.23323  -1.57113
 Alpha  occ. eigenvalues --   -1.36690  -1.31109  -1.22593  -1.14881  -1.10181
 Alpha  occ. eigenvalues --   -1.03358  -1.01164  -0.94621  -0.90325  -0.86887
 Alpha  occ. eigenvalues --   -0.83032  -0.78799  -0.77007  -0.74656  -0.72208
 Alpha  occ. eigenvalues --   -0.70442  -0.69727  -0.68670  -0.65843  -0.64642
 Alpha  occ. eigenvalues --   -0.60338  -0.59732  -0.58513  -0.57126  -0.55896
 Alpha  occ. eigenvalues --   -0.54309  -0.52189  -0.51502  -0.49174  -0.48472
 Alpha  occ. eigenvalues --   -0.47637  -0.47223  -0.46524  -0.43655  -0.41683
 Alpha  occ. eigenvalues --   -0.39274  -0.33512
 Alpha virt. eigenvalues --    0.07236   0.11953   0.17295   0.21314   0.23654
 Alpha virt. eigenvalues --    0.24901   0.26491   0.27154   0.27946   0.28682
 Alpha virt. eigenvalues --    0.29753   0.31383   0.32011   0.32566   0.33739

 Mulliken charges:
               1
     1  O   -0.466306
     2  N    0.491868
     3  O   -0.502319
     4  C    0.007670
     5  C    0.185836
     6  N   -0.770484
     7  C    0.031826
     8  H    0.211782
     9  C   -0.342212
    10  C   -0.331033
    11  C   -0.326209
    12  C   -0.310299
    13  C   -0.006682
    14  H    0.187522
    15  N   -0.506162
    16  C    0.091335
    17  H    0.297443
    18  H    0.404086
    19  H    0.158307
    20  H    0.191640
    21  H    0.176073
    22  H    0.173681
    23  H    0.154632
    24  H    0.177900
    25  H    0.179345
    26  H    0.186303
    27  H    0.254457
 Sum of Mulliken charges =  -0.00000

 Dipole moment (field-independent basis, Debye):
    X=              7.0218    Y=             -3.5687    Z=             -0.6105  Tot=              7.9002
 Quadrupole moment (field-independent basis, Debye-Ang):
   XX=           -101.1717   YY=            -84.5370   ZZ=            -82.7511
   XY=             -3.1805   XZ=              2.4985   YZ=              2.2639

 1\1\GINC-DAHLIA\FOpt\RMP2-FC\6-31G(d)\C9H13N3O2\ALEXEY\03-Jun-2023\0\\
 # MP2/6-31G* Opt Scf=Tight\\Title\\0,1\O,3.5744874857,0.8817149608,-0.
 3285354984\N,2.8881283783,-0.1577249387,-0.2945570331\O,3.3355570886,-
 1.2839789309,-0.587047968\C,1.4896694334,-0.02858035,0.0986814176\C,0.
 7510391434,-1.1731358183,-0.0459443705\N,-0.5363444175,-1.3544902327,0
 .2846991572\C,-1.3701252151,-0.4270279064,1.0350381603\H,-1.0266442237
 ,-0.4124288114,2.0779259821\C,-2.8344147577,-0.8891865545,0.9532685234
 \C,-3.575090271,-0.2984583852,-0.2625439282\C,-2.6259021357,-0.0339806

 Normal termination of Gaussian 16 at Sat Jun  3 15:22:27 2023.
