 Gaussian 16, Revision C.02,
 Gaussian 16:  ES64L-G16RevC.02  7-Dec-2021

 ---------------------------------------------------------
 #MP2/6-31G* SCF=Tight Opt=(ModRedun, MaxCycle=20 ) NoSymm
 ---------------------------------------------------------

 --------
 MolName:
 --------
 Symbolic Z-matrix:
 Charge =  0 Multiplicity = 1

 SCF Done:  E(RHF) =  -661.275102577     A.U. after   16 cycles
 E2 =    -0.2038295231D+01 EUMP2 =    -0.66331339780853D+03
 SCF Done:  E(RHF) =  -661.292403139     A.U. after   15 cycles
 E2 =    -0.2034013842D+01 EUMP2 =    -0.66332641698135D+03
 SCF Done:  E(RHF) =  -661.294889737     A.U. after   14 cycles
 E2 =    -0.2034647250D+01 EUMP2 =    -0.66332953698687D+03
 SCF Done:  E(RHF) =  -661.284262174     A.U. after   17 cycles
 E2 =    -0.2038000109D+01 EUMP2 =    -0.66332226228254D+03
 SCF Done:  E(RHF) =  -661.294730838     A.U. after   15 cycles
 E2 =    -0.2036538627D+01 EUMP2 =    -0.66333126946430D+03
 SCF Done:  E(RHF) =  -661.295418411     A.U. after   12 cycles
 E2 =    -0.2036112263D+01 EUMP2 =    -0.66333153067372D+03
 SCF Done:  E(RHF) =  -661.296140148     A.U. after   12 cycles
 E2 =    -0.2035459504D+01 EUMP2 =    -0.66333159965146D+03
 SCF Done:  E(RHF) =  -661.296161099     A.U. after   11 cycles
 E2 =    -0.2035451314D+01 EUMP2 =    -0.66333161241222D+03
 SCF Done:  E(RHF) =  -661.296049238     A.U. after   10 cycles
 E2 =    -0.2035564998D+01 EUMP2 =    -0.66333161423535D+03
 Optimization completed.
    -- Stationary point found.

                          Input orientation:
 ---------------------------------------------------------------------
 Center     Atomic      Atomic             Coordinates (Angstroms)
 Number     Number       Type             X           Y           Z
 ---------------------------------------------------------------------
      1          8           0       -3.508714   -1.402445   -0.359656
      2          7           0       -3.124053   -0.258750   -0.048328
      3          8           0       -3.898776    0.673640    0.240669
      4          6           0       -1.690488   -0.031349    0.003915
      5          6           0       -1.306345    1.259015    0.272306
      6          7           0       -0.059972    1.758043    0.313699
      7          6           0        1.208645    1.031862    0.319831
      8          1           0        1.834076    1.557490    1.057806
      9          6           0        1.954620    1.046519   -1.011547
     10          6           0        3.343188    0.430884   -0.802147
     11          6           0        3.265178   -0.967833   -0.183896
     12          6           0        2.425504   -0.980824    1.095573
     13          6           0        1.029007   -0.415140    0.814193
     14          1           0        0.417410   -0.395084    1.730599
     15          7           0        0.406558   -1.301431   -0.164990
     16          6           0       -0.831705   -1.090908   -0.484960
     17          1           0       -2.097271    1.980494    0.458854
     18          1           0       -0.000900    2.744211    0.539722
     19          1           0        1.381701    0.475367   -1.749510
     20          1           0        2.039217    2.075770   -1.381965
     21          1           0        3.879862    0.393586   -1.756970
     22          1           0        3.924986    1.090637   -0.142840
     23          1           0        2.807308   -1.658129   -0.899287
     24          1           0        4.275455   -1.338601    0.025975
     25          1           0        2.320084   -2.004606    1.469431
     26          1           0        2.912743   -0.391759    1.884830
     27          1           0       -1.343318   -1.915645   -0.984288
 ---------------------------------------------------------------------

 Alpha  occ. eigenvalues --  -20.59287 -20.58946 -15.84802 -15.64144 -15.56196
 Alpha  occ. eigenvalues --  -11.35086 -11.29671 -11.29426 -11.28567 -11.27085
 Alpha  occ. eigenvalues --  -11.23721 -11.23215 -11.22695 -11.22100  -1.57187
 Alpha  occ. eigenvalues --   -1.36772  -1.30923  -1.23094  -1.14707  -1.09809
 Alpha  occ. eigenvalues --   -1.02802  -1.01278  -0.94434  -0.89685  -0.85574
 Alpha  occ. eigenvalues --   -0.82403  -0.78575  -0.77394  -0.75139  -0.72023
 Alpha  occ. eigenvalues --   -0.69717  -0.69586  -0.67857  -0.64742  -0.63792
 Alpha  occ. eigenvalues --   -0.62387  -0.60203  -0.57645  -0.56878  -0.55003
 Alpha  occ. eigenvalues --   -0.54713  -0.50688  -0.50062  -0.48713  -0.48087
 Alpha  occ. eigenvalues --   -0.47402  -0.46257  -0.45918  -0.43733  -0.41829
 Alpha  occ. eigenvalues --   -0.39928  -0.33739
 Alpha virt. eigenvalues --    0.07390   0.11586   0.17348   0.21842   0.24130
 Alpha virt. eigenvalues --    0.25581   0.27021   0.28295   0.29077   0.29513
 Alpha virt. eigenvalues --    0.30767   0.31819   0.32130   0.32758   0.33932

 Mulliken charges:
               1
     1  O   -0.468340
     2  N    0.486968
     3  O   -0.501842
     4  C    0.012855
     5  C    0.188332
     6  N   -0.777776
     7  C    0.063329
     8  H    0.179786
     9  C   -0.301421
    10  C   -0.328572
    11  C   -0.321440
    12  C   -0.306601
    13  C   -0.042868
    14  H    0.190553
    15  N   -0.498342
    16  C    0.094816
    17  H    0.292769
    18  H    0.403776
    19  H    0.190753
    20  H    0.161398
    21  H    0.174843
    22  H    0.149463
    23  H    0.199862
    24  H    0.164629
    25  H    0.187006
    26  H    0.150532
    27  H    0.255531
 Sum of Mulliken charges =  -0.00000

 Dipole moment (field-independent basis, Debye):
    X=              5.3752    Y=              4.8309    Z=              1.1449  Tot=              7.3172
 Quadrupole moment (field-independent basis, Debye-Ang):
   XX=           -106.0018   YY=            -78.9572   ZZ=            -81.8797
   XY=             -2.0062   XZ=              0.7745   YZ=              1.3595

 Normal termination of Gaussian 16 at Mon Jul  3 02:27:33 2023.
