 Gaussian 16, Revision C.02,
 Gaussian 16:  ES64L-G16RevC.02  7-Dec-2021

 ---------------------------------------------------------
 #MP2/6-31G* SCF=Tight Opt=(ModRedun, MaxCycle=20 ) NoSymm
 ---------------------------------------------------------

 --------
 MolName:
 --------
 Symbolic Z-matrix:
 Charge =  0 Multiplicity = 1

 SCF Done:  E(RHF) =  -661.279192899     A.U. after   16 cycles
 E2 =    -0.2037568019D+01 EUMP2 =    -0.66331676091846D+03
 SCF Done:  E(RHF) =  -661.296459031     A.U. after   15 cycles
 E2 =    -0.2033070710D+01 EUMP2 =    -0.66332952974117D+03
 SCF Done:  E(RHF) =  -661.298144250     A.U. after   15 cycles
 E2 =    -0.2033753972D+01 EUMP2 =    -0.66333189822217D+03
 SCF Done:  E(RHF) =  -661.287712702     A.U. after   17 cycles
 E2 =    -0.2037008872D+01 EUMP2 =    -0.66332472157455D+03
 SCF Done:  E(RHF) =  -661.298149791     A.U. after   14 cycles
 E2 =    -0.2035450166D+01 EUMP2 =    -0.66333359995750D+03
 SCF Done:  E(RHF) =  -661.298761908     A.U. after   12 cycles
 E2 =    -0.2035056386D+01 EUMP2 =    -0.66333381829324D+03
 SCF Done:  E(RHF) =  -661.299382797     A.U. after   12 cycles
 E2 =    -0.2034506406D+01 EUMP2 =    -0.66333388920287D+03
 SCF Done:  E(RHF) =  -661.299356895     A.U. after   11 cycles
 E2 =    -0.2034544281D+01 EUMP2 =    -0.66333390117680D+03
 SCF Done:  E(RHF) =  -661.299252588     A.U. after   10 cycles
 E2 =    -0.2034650326D+01 EUMP2 =    -0.66333390291391D+03
 Optimization completed.
    -- Stationary point found.

                          Input orientation:
 ---------------------------------------------------------------------
 Center     Atomic      Atomic             Coordinates (Angstroms)
 Number     Number       Type             X           Y           Z
 ---------------------------------------------------------------------
      1          8           0       -3.507736   -1.396469   -0.365842
      2          7           0       -3.123261   -0.245449   -0.081900
      3          8           0       -3.899017    0.701394    0.152334
      4          6           0       -1.688749   -0.027892   -0.001761
      5          6           0       -1.303728    1.259574    0.273955
      6          7           0       -0.058290    1.754578    0.348974
      7          6           0        1.207230    1.028150    0.339024
      8          1           0        1.843895    1.555335    1.065896
      9          6           0        1.932543    1.040818   -1.004520
     10          6           0        3.326075    0.429553   -0.817172
     11          6           0        3.262665   -0.967805   -0.194466
     12          6           0        2.444752   -0.979360    1.098901
     13          6           0        1.041593   -0.419661    0.839331
     14          1           0        0.447243   -0.398613    1.766837
     15          7           0        0.407346   -1.309414   -0.128399
     16          6           0       -0.835108   -1.115269   -0.437317
     17          1           0       -2.097117    1.983248    0.440071
     18          1           0        0.000524    2.740085    0.577285
     19          1           0        1.349113    0.466487   -1.731847
     20          1           0        2.008119    2.069378   -1.378753
     21          1           0        3.846806    0.391711   -1.780798
     22          1           0        3.916819    1.092596   -0.169187
     23          1           0        2.794938   -1.661371   -0.900228
     24          1           0        4.277420   -1.335013   -0.000495
     25          1           0        2.349051   -2.002143    1.478029
     26          1           0        2.943166   -0.385746    1.877710
     27          1           0       -1.323291   -1.904691   -1.008650
 ---------------------------------------------------------------------

 Alpha  occ. eigenvalues --  -20.59261 -20.58924 -15.84761 -15.64142 -15.56120
 Alpha  occ. eigenvalues --  -11.35051 -11.29641 -11.29503 -11.28595 -11.27109
 Alpha  occ. eigenvalues --  -11.23719 -11.23207 -11.22689 -11.22090  -1.57153
 Alpha  occ. eigenvalues --   -1.36741  -1.30954  -1.23080  -1.14703  -1.09811
 Alpha  occ. eigenvalues --   -1.02801  -1.01291  -0.94457  -0.89683  -0.85567
 Alpha  occ. eigenvalues --   -0.82425  -0.78594  -0.77404  -0.75180  -0.72025
 Alpha  occ. eigenvalues --   -0.69748  -0.69516  -0.67836  -0.64839  -0.63787
 Alpha  occ. eigenvalues --   -0.62377  -0.60257  -0.57671  -0.56943  -0.55044
 Alpha  occ. eigenvalues --   -0.54646  -0.50726  -0.50085  -0.48682  -0.48092
 Alpha  occ. eigenvalues --   -0.47384  -0.46191  -0.45997  -0.43706  -0.41756
 Alpha  occ. eigenvalues --   -0.39881  -0.33791
 Alpha virt. eigenvalues --    0.07435   0.11752   0.17327   0.21846   0.24137
 Alpha virt. eigenvalues --    0.25669   0.27096   0.28503   0.29071   0.29569
 Alpha virt. eigenvalues --    0.30744   0.31773   0.32076   0.32762   0.33947

 Mulliken charges:
               1
     1  O   -0.467822
     2  N    0.488652
     3  O   -0.502949
     4  C    0.006766
     5  C    0.188657
     6  N   -0.779210
     7  C    0.061759
     8  H    0.179888
     9  C   -0.301331
    10  C   -0.328268
    11  C   -0.321426
    12  C   -0.306641
    13  C   -0.039336
    14  H    0.190074
    15  N   -0.506592
    16  C    0.108199
    17  H    0.294159
    18  H    0.404388
    19  H    0.190414
    20  H    0.161360
    21  H    0.174712
    22  H    0.149388
    23  H    0.199910
    24  H    0.164551
    25  H    0.187023
    26  H    0.150405
    27  H    0.253271
 Sum of Mulliken charges =  -0.00000

 Dipole moment (field-independent basis, Debye):
    X=              5.3911    Y=              4.8109    Z=              1.2034  Tot=              7.3251
 Quadrupole moment (field-independent basis, Debye-Ang):
   XX=           -106.0958   YY=            -79.0823   ZZ=            -81.6679
   XY=             -1.8727   XZ=              0.3528   YZ=              1.6158

 Normal termination of Gaussian 16 at Mon Jul  3 02:07:35 2023.
