 Gaussian 16, Revision C.02,
 Gaussian 16:  ES64L-G16RevC.02  7-Dec-2021

 ---------------------------------------------------------
 #MP2/6-31G* SCF=Tight Opt=(ModRedun, MaxCycle=20 ) NoSymm
 ---------------------------------------------------------

 --------
 MolName:
 --------
 Symbolic Z-matrix:
 Charge =  0 Multiplicity = 1

 SCF Done:  E(RHF) =  -661.281520607     A.U. after   16 cycles
 E2 =    -0.2037211824D+01 EUMP2 =    -0.66331873243183D+03
 SCF Done:  E(RHF) =  -661.298557166     A.U. after   15 cycles
 E2 =    -0.2032644822D+01 EUMP2 =    -0.66333120198821D+03
 SCF Done:  E(RHF) =  -661.299193436     A.U. after   15 cycles
 E2 =    -0.2033443579D+01 EUMP2 =    -0.66333263701466D+03
 SCF Done:  E(RHF) =  -661.288826903     A.U. after   17 cycles
 E2 =    -0.2036619910D+01 EUMP2 =    -0.66332544681310D+03
 SCF Done:  E(RHF) =  -661.299326445     A.U. after   14 cycles
 E2 =    -0.2035000726D+01 EUMP2 =    -0.66333432717105D+03
 SCF Done:  E(RHF) =  -661.299952542     A.U. after   12 cycles
 E2 =    -0.2034607435D+01 EUMP2 =    -0.66333455997656D+03
 SCF Done:  E(RHF) =  -661.300461266     A.U. after   12 cycles
 E2 =    -0.2034170787D+01 EUMP2 =    -0.66333463205282D+03
 SCF Done:  E(RHF) =  -661.300473602     A.U. after   12 cycles
 E2 =    -0.2034173542D+01 EUMP2 =    -0.66333464714402D+03
 SCF Done:  E(RHF) =  -661.300395946     A.U. after   10 cycles
 E2 =    -0.2034253346D+01 EUMP2 =    -0.66333464929191D+03
 SCF Done:  E(RHF) =  -661.300359519     A.U. after    9 cycles
 E2 =    -0.2034289885D+01 EUMP2 =    -0.66333464940447D+03
 Optimization completed.
    -- Stationary point found.

                          Input orientation:
 ---------------------------------------------------------------------
 Center     Atomic      Atomic             Coordinates (Angstroms)
 Number     Number       Type             X           Y           Z
 ---------------------------------------------------------------------
      1          8           0       -3.506765   -1.390421   -0.371251
      2          7           0       -3.121107   -0.232321   -0.118514
      3          8           0       -3.895426    0.728651    0.055768
      4          6           0       -1.686669   -0.023841   -0.009651
      5          6           0       -1.301437    1.260630    0.275342
      6          7           0       -0.057206    1.750161    0.386373
      7          6           0        1.205613    1.023992    0.359318
      8          1           0        1.853353    1.552889    1.074767
      9          6           0        1.909139    1.035139   -0.996494
     10          6           0        3.307523    0.428496   -0.832424
     11          6           0        3.259525   -0.967635   -0.205907
     12          6           0        2.464509   -0.978317    1.101542
     13          6           0        1.054779   -0.424619    0.865099
     14          1           0        0.478226   -0.403325    1.803512
     15          7           0        0.408237   -1.317950   -0.091151
     16          6           0       -0.839111   -1.138137   -0.386512
     17          1           0       -2.096199    1.987537    0.418952
     18          1           0        0.001679    2.735340    0.615495
     19          1           0        1.314901    0.457697   -1.712700
     20          1           0        1.975114    2.063084   -1.374195
     21          1           0        3.811517    0.390445   -1.804943
     22          1           0        3.907287    1.094779   -0.196106
     23          1           0        2.781858   -1.664386   -0.901806
     24          1           0        4.278692   -1.331154   -0.028764
     25          1           0        2.379070   -2.000270    1.485333
     26          1           0        2.974466   -0.380513    1.869619
     27          1           0       -1.300558   -1.892948   -1.022690
 ---------------------------------------------------------------------

 Alpha  occ. eigenvalues --  -20.59236 -20.58904 -15.84722 -15.64136 -15.56111
 Alpha  occ. eigenvalues --  -11.35018 -11.29623 -11.29559 -11.28627 -11.27134
 Alpha  occ. eigenvalues --  -11.23729 -11.23208 -11.22692 -11.22089  -1.57115
 Alpha  occ. eigenvalues --   -1.36709  -1.30978  -1.23064  -1.14703  -1.09819
 Alpha  occ. eigenvalues --   -1.02805  -1.01308  -0.94482  -0.89684  -0.85566
 Alpha  occ. eigenvalues --   -0.82448  -0.78609  -0.77411  -0.75203  -0.72020
 Alpha  occ. eigenvalues --   -0.69770  -0.69438  -0.67820  -0.64892  -0.63777
 Alpha  occ. eigenvalues --   -0.62368  -0.60281  -0.57700  -0.57001  -0.55077
 Alpha  occ. eigenvalues --   -0.54582  -0.50762  -0.50108  -0.48656  -0.48102
 Alpha  occ. eigenvalues --   -0.47372  -0.46146  -0.46044  -0.43678  -0.41696
 Alpha  occ. eigenvalues --   -0.39847  -0.33829
 Alpha virt. eigenvalues --    0.07464   0.11799   0.17307   0.21848   0.24113
 Alpha virt. eigenvalues --    0.25664   0.27134   0.28694   0.29044   0.29635
 Alpha virt. eigenvalues --    0.30683   0.31797   0.32036   0.32766   0.33950

 Mulliken charges:
               1
     1  O   -0.467242
     2  N    0.491298
     3  O   -0.504057
     4  C    0.000462
     5  C    0.188879
     6  N   -0.780286
     7  C    0.060267
     8  H    0.180076
     9  C   -0.301431
    10  C   -0.327940
    11  C   -0.321488
    12  C   -0.306656
    13  C   -0.037183
    14  H    0.189957
    15  N   -0.511217
    16  C    0.120012
    17  H    0.295299
    18  H    0.404873
    19  H    0.190187
    20  H    0.161380
    21  H    0.174648
    22  H    0.149361
    23  H    0.199934
    24  H    0.164540
    25  H    0.187063
    26  H    0.150349
    27  H    0.248915
 Sum of Mulliken charges =  -0.00000

 Dipole moment (field-independent basis, Debye):
    X=              5.4159    Y=              4.7961    Z=              1.2814  Tot=              7.3469
 Quadrupole moment (field-independent basis, Debye-Ang):
   XX=           -106.1398   YY=            -79.2248   ZZ=            -81.5017
   XY=             -1.7664   XZ=             -0.1327   YZ=              1.8551

 Normal termination of Gaussian 16 at Mon Jul  3 01:05:29 2023.
