 Gaussian 16, Revision C.02,
 Gaussian 16:  ES64L-G16RevC.02  7-Dec-2021

 ---------------------------------------------------------
 #MP2/6-31G* SCF=Tight Opt=(ModRedun, MaxCycle=20 ) NoSymm
 ---------------------------------------------------------

 --------
 MolName:
 --------
 Symbolic Z-matrix:
 Charge =  0 Multiplicity = 1

 SCF Done:  E(RHF) =  -661.281835379     A.U. after   16 cycles
 E2 =    -0.2037261201D+01 EUMP2 =    -0.66331909658035D+03
 SCF Done:  E(RHF) =  -661.298498900     A.U. after   15 cycles
 E2 =    -0.2032822509D+01 EUMP2 =    -0.66333132140897D+03
 SCF Done:  E(RHF) =  -661.297892128     A.U. after   15 cycles
 E2 =    -0.2033789868D+01 EUMP2 =    -0.66333168199549D+03
 SCF Done:  E(RHF) =  -661.288597181     A.U. after   17 cycles
 E2 =    -0.2035324136D+01 EUMP2 =    -0.66332392131618D+03
 SCF Done:  E(RHF) =  -661.298846247     A.U. after   14 cycles
 E2 =    -0.2034732366D+01 EUMP2 =    -0.66333357861302D+03
 SCF Done:  E(RHF) =  -661.298953132     A.U. after   13 cycles
 E2 =    -0.2034833835D+01 EUMP2 =    -0.66333378696694D+03
 SCF Done:  E(RHF) =  -661.299405564     A.U. after   12 cycles
 E2 =    -0.2034497310D+01 EUMP2 =    -0.66333390287422D+03
 SCF Done:  E(RHF) =  -661.299506384     A.U. after   12 cycles
 E2 =    -0.2034414804D+01 EUMP2 =    -0.66333392118881D+03
 SCF Done:  E(RHF) =  -661.299504362     A.U. after   11 cycles
 E2 =    -0.2034419041D+01 EUMP2 =    -0.66333392340294D+03
 SCF Done:  E(RHF) =  -661.299492316     A.U. after    9 cycles
 E2 =    -0.2034431444D+01 EUMP2 =    -0.66333392376016D+03
 Optimization completed.
    -- Stationary point found.

                          Input orientation:
 ---------------------------------------------------------------------
 Center     Atomic      Atomic             Coordinates (Angstroms)
 Number     Number       Type             X           Y           Z
 ---------------------------------------------------------------------
      1          8           0       -3.505596   -1.381618   -0.383693
      2          7           0       -3.116827   -0.217982   -0.163149
      3          8           0       -3.886429    0.756228   -0.053073
      4          6           0       -1.683570   -0.018402   -0.022077
      5          6           0       -1.299044    1.262863    0.275074
      6          7           0       -0.056495    1.744747    0.426298
      7          6           0        1.204145    1.019061    0.382034
      8          1           0        1.862287    1.549390    1.086496
      9          6           0        1.885685    1.029785   -0.985621
     10          6           0        3.288331    0.427260   -0.845270
     11          6           0        3.255407   -0.968169   -0.216466
     12          6           0        2.483318   -0.978866    1.104538
     13          6           0        1.067726   -0.430734    0.891404
     14          1           0        0.508431   -0.410511    1.839877
     15          7           0        0.409466   -1.326363   -0.054985
     16          6           0       -0.842940   -1.157674   -0.335529
     17          1           0       -2.093850    1.994111    0.394077
     18          1           0        0.003268    2.729506    0.656468
     19          1           0        1.280871    0.450051   -1.691183
     20          1           0        1.942297    2.057444   -1.365540
     21          1           0        3.775424    0.389711   -1.826385
     22          1           0        3.897007    1.096045   -0.220156
     23          1           0        2.767976   -1.667392   -0.903041
     24          1           0        4.278558   -1.328382   -0.056452
     25          1           0        2.408044   -2.000215    1.491969
     26          1           0        3.004448   -0.377513    1.862265
     27          1           0       -1.274946   -1.878358   -1.030890
 ---------------------------------------------------------------------

 Alpha  occ. eigenvalues --  -20.59218 -20.58882 -15.84686 -15.64126 -15.56166
 Alpha  occ. eigenvalues --  -11.34987 -11.29616 -11.29593 -11.28662 -11.27154
 Alpha  occ. eigenvalues --  -11.23745 -11.23216 -11.22700 -11.22096  -1.57091
 Alpha  occ. eigenvalues --   -1.36688  -1.30990  -1.23055  -1.14705  -1.09829
 Alpha  occ. eigenvalues --   -1.02813  -1.01326  -0.94504  -0.89689  -0.85567
 Alpha  occ. eigenvalues --   -0.82471  -0.78621  -0.77417  -0.75203  -0.72008
 Alpha  occ. eigenvalues --   -0.69789  -0.69363  -0.67813  -0.64901  -0.63770
 Alpha  occ. eigenvalues --   -0.62359  -0.60275  -0.57726  -0.57050  -0.55107
 Alpha  occ. eigenvalues --   -0.54519  -0.50789  -0.50136  -0.48637  -0.48118
 Alpha  occ. eigenvalues --   -0.47366  -0.46162  -0.46022  -0.43651  -0.41644
 Alpha  occ. eigenvalues --   -0.39833  -0.33853
 Alpha virt. eigenvalues --    0.07482   0.11733   0.17289   0.21853   0.24063
 Alpha virt. eigenvalues --    0.25599   0.27134   0.28822   0.29004   0.29668
 Alpha virt. eigenvalues --    0.30576   0.31928   0.32017   0.32775   0.33943

 Mulliken charges:
               1
     1  O   -0.466623
     2  N    0.494591
     3  O   -0.505000
     4  C   -0.005133
     5  C    0.188845
     6  N   -0.780693
     7  C    0.058573
     8  H    0.180390
     9  C   -0.301701
    10  C   -0.327603
    11  C   -0.321651
    12  C   -0.306632
    13  C   -0.036419
    14  H    0.190205
    15  N   -0.511560
    16  C    0.128779
    17  H    0.296019
    18  H    0.405196
    19  H    0.190132
    20  H    0.161452
    21  H    0.174641
    22  H    0.149377
    23  H    0.199980
    24  H    0.164593
    25  H    0.187100
    26  H    0.150338
    27  H    0.242802
 Sum of Mulliken charges =  -0.00000

 Dipole moment (field-independent basis, Debye):
    X=              5.4453    Y=              4.7824    Z=              1.3891  Tot=              7.3792
 Quadrupole moment (field-independent basis, Debye-Ang):
   XX=           -106.1166   YY=            -79.3775   ZZ=            -81.3897
   XY=             -1.6735   XZ=             -0.7110   YZ=              2.0755

 Normal termination of Gaussian 16 at Mon Jul  3 01:28:00 2023.
