 Gaussian 16, Revision C.02,
 Gaussian 16:  ES64L-G16RevC.02  7-Dec-2021

 ---------------------------------------------------------
 #MP2/6-31G* SCF=Tight Opt=(ModRedun, MaxCycle=20 ) NoSymm
 ---------------------------------------------------------

 --------
 MolName:
 --------
 Symbolic Z-matrix:
 Charge =  0 Multiplicity = 1

 SCF Done:  E(RHF) =  -661.265439091     A.U. after   16 cycles
 E2 =    -0.2039156099D+01 EUMP2 =    -0.66330459518988D+03
 SCF Done:  E(RHF) =  -661.287231586     A.U. after   15 cycles
 E2 =    -0.2035212016D+01 EUMP2 =    -0.66332244360183D+03
 SCF Done:  E(RHF) =  -661.293100382     A.U. after   15 cycles
 E2 =    -0.2035429274D+01 EUMP2 =    -0.66332852965556D+03
 SCF Done:  E(RHF) =  -661.286481858     A.U. after   17 cycles
 E2 =    -0.2037420103D+01 EUMP2 =    -0.66332390196115D+03
 SCF Done:  E(RHF) =  -661.294308241     A.U. after   15 cycles
 E2 =    -0.2036658425D+01 EUMP2 =    -0.66333096666632D+03
 SCF Done:  E(RHF) =  -661.296034628     A.U. after   13 cycles
 E2 =    -0.2035655133D+01 EUMP2 =    -0.66333168976189D+03
 SCF Done:  E(RHF) =  -661.296747932     A.U. after   12 cycles
 E2 =    -0.2034993396D+01 EUMP2 =    -0.66333174132849D+03
 SCF Done:  E(RHF) =  -661.296845825     A.U. after   11 cycles
 E2 =    -0.2034914139D+01 EUMP2 =    -0.66333175996439D+03
 SCF Done:  E(RHF) =  -661.296769794     A.U. after   11 cycles
 E2 =    -0.2034996385D+01 EUMP2 =    -0.66333176617914D+03
 SCF Done:  E(RHF) =  -661.296695105     A.U. after   11 cycles
 E2 =    -0.2035072219D+01 EUMP2 =    -0.66333176732464D+03
 Optimization completed.
    -- Stationary point found.

                          Input orientation:
 ---------------------------------------------------------------------
 Center     Atomic      Atomic             Coordinates (Angstroms)
 Number     Number       Type             X           Y           Z
 ---------------------------------------------------------------------
      1          8           0       -3.505064   -1.370903   -0.397273
      2          7           0       -3.110854   -0.203387   -0.209742
      3          8           0       -3.871840    0.782801   -0.166068
      4          6           0       -1.680045   -0.012444   -0.034320
      5          6           0       -1.296847    1.266200    0.274067
      6          7           0       -0.056450    1.738675    0.466530
      7          6           0        1.202350    1.013489    0.404804
      8          1           0        1.870476    1.545775    1.097948
      9          6           0        1.861240    1.023589   -0.974496
     10          6           0        3.267917    0.425442   -0.858280
     11          6           0        3.250425   -0.969121   -0.227219
     12          6           0        2.501908   -0.979770    1.107211
     13          6           0        1.080714   -0.437040    0.918131
     14          1           0        0.538913   -0.418212    1.876310
     15          7           0        0.410188   -1.335474   -0.018194
     16          6           0       -0.847890   -1.174404   -0.280916
     17          1           0       -2.090021    2.003105    0.366049
     18          1           0        0.005141    2.723611    0.695126
     19          1           0        1.245849    0.441326   -1.668911
     20          1           0        1.908140    2.050866   -1.356700
     21          1           0        3.737737    0.388148   -1.847808
     22          1           0        3.885412    1.096905   -0.244798
     23          1           0        2.753302   -1.670931   -0.904163
     24          1           0        4.277347   -1.325968   -0.084771
     25          1           0        2.436961   -2.000551    1.497963
     26          1           0        3.034404   -0.375096    1.854332
     27          1           0       -1.249415   -1.862623   -1.028823
 ---------------------------------------------------------------------

 Alpha  occ. eigenvalues --  -20.59208 -20.58863 -15.84657 -15.64112 -15.56286
 Alpha  occ. eigenvalues --  -11.34961 -11.29621 -11.29606 -11.28702 -11.27170
 Alpha  occ. eigenvalues --  -11.23772 -11.23231 -11.22716 -11.22113  -1.57073
 Alpha  occ. eigenvalues --   -1.36676  -1.30991  -1.23044  -1.14708  -1.09842
 Alpha  occ. eigenvalues --   -1.02821  -1.01345  -0.94522  -0.89696  -0.85572
 Alpha  occ. eigenvalues --   -0.82493  -0.78626  -0.77416  -0.75185  -0.71991
 Alpha  occ. eigenvalues --   -0.69802  -0.69291  -0.67813  -0.64865  -0.63754
 Alpha  occ. eigenvalues --   -0.62354  -0.60238  -0.57742  -0.57093  -0.55133
 Alpha  occ. eigenvalues --   -0.54457  -0.50806  -0.50164  -0.48624  -0.48134
 Alpha  occ. eigenvalues --   -0.47367  -0.46204  -0.45969  -0.43628  -0.41602
 Alpha  occ. eigenvalues --   -0.39847  -0.33863
 Alpha virt. eigenvalues --    0.07479   0.11566   0.17272   0.21859   0.23992
 Alpha virt. eigenvalues --    0.25493   0.27107   0.28886   0.28959   0.29619
 Alpha virt. eigenvalues --    0.30427   0.31964   0.32181   0.32790   0.33923

 Mulliken charges:
               1
     1  O   -0.466004
     2  N    0.497849
     3  O   -0.505555
     4  C   -0.009328
     5  C    0.188385
     6  N   -0.780308
     7  C    0.056661
     8  H    0.180766
     9  C   -0.302166
    10  C   -0.327229
    11  C   -0.321885
    12  C   -0.306620
    13  C   -0.036864
    14  H    0.190819
    15  N   -0.508030
    16  C    0.133796
    17  H    0.296249
    18  H    0.405359
    19  H    0.190231
    20  H    0.161551
    21  H    0.174695
    22  H    0.149437
    23  H    0.199988
    24  H    0.164709
    25  H    0.187160
    26  H    0.150394
    27  H    0.235940
 Sum of Mulliken charges =  -0.00000

 Dipole moment (field-independent basis, Debye):
    X=              5.4782    Y=              4.7739    Z=              1.5066  Tot=              7.4209
 Quadrupole moment (field-independent basis, Debye-Ang):
   XX=           -106.0171   YY=            -79.5331   ZZ=            -81.3489
   XY=             -1.6044   XZ=             -1.3240   YZ=              2.2643

 Normal termination of Gaussian 16 at Mon Jul  3 01:49:10 2023.
