 Gaussian 16, Revision C.02,
 Gaussian 16:  ES64L-G16RevC.02  7-Dec-2021

 ---------------------------------------------------------
 #MP2/6-31G* SCF=Tight Opt=(ModRedun, MaxCycle=20 ) NoSymm
 ---------------------------------------------------------

 --------
 MolName:
 --------
 Symbolic Z-matrix:
 Charge =  0 Multiplicity = 1

 SCF Done:  E(RHF) =  -661.252517040     A.U. after   16 cycles
 E2 =    -0.2042351582D+01 EUMP2 =    -0.66329486862175D+03
 SCF Done:  E(RHF) =  -661.269286311     A.U. after   15 cycles
 E2 =    -0.2039393009D+01 EUMP2 =    -0.66330867932081D+03
 SCF Done:  E(RHF) =  -661.272825508     A.U. after   15 cycles
 E2 =    -0.2040168004D+01 EUMP2 =    -0.66331299351159D+03
 SCF Done:  E(RHF) =  -661.271149398     A.U. after   15 cycles
 E2 =    -0.2041659798D+01 EUMP2 =    -0.66331280919625D+03
 SCF Done:  E(RHF) =  -661.269220831     A.U. after   15 cycles
 E2 =    -0.2043247829D+01 EUMP2 =    -0.66331246866072D+03
 SCF Done:  E(RHF) =  -661.267399128     A.U. after   15 cycles
 E2 =    -0.2043075374D+01 EUMP2 =    -0.66331047450243D+03
 SCF Done:  E(RHF) =  -661.272822276     A.U. after   11 cycles
 E2 =    -0.2040857187D+01 EUMP2 =    -0.66331367946346D+03
 SCF Done:  E(RHF) =  -661.273756652     A.U. after   14 cycles
 E2 =    -0.2041440266D+01 EUMP2 =    -0.66331519691754D+03
 SCF Done:  E(RHF) =  -661.274261747     A.U. after   12 cycles
 E2 =    -0.2041072207D+01 EUMP2 =    -0.66331533395396D+03
 SCF Done:  E(RHF) =  -661.274313800     A.U. after   12 cycles
 E2 =    -0.2041039762D+01 EUMP2 =    -0.66331535356158D+03
 SCF Done:  E(RHF) =  -661.274284638     A.U. after   10 cycles
 E2 =    -0.2041071137D+01 EUMP2 =    -0.66331535577501D+03
 SCF Done:  E(RHF) =  -661.274277660     A.U. after    9 cycles
 E2 =    -0.2041078578D+01 EUMP2 =    -0.66331535623796D+03
 Optimization completed.
    -- Stationary point found.

                          Input orientation:
 ---------------------------------------------------------------------
 Center     Atomic      Atomic             Coordinates (Angstroms)
 Number     Number       Type             X           Y           Z
 ---------------------------------------------------------------------
      1          8           0       -3.509636   -1.428237   -0.319511
      2          7           0       -3.121817   -0.300965    0.042458
      3          8           0       -3.885885    0.591061    0.459621
      4          6           0       -1.696781   -0.037605    0.013050
      5          6           0       -1.316747    1.260103    0.270532
      6          7           0       -0.067511    1.763512    0.225768
      7          6           0        1.212462    1.040365    0.269330
      8          1           0        1.808223    1.563461    1.033961
      9          6           0        2.005764    1.061994   -1.031787
     10          6           0        3.381215    0.435875   -0.770859
     11          6           0        3.269294   -0.966730   -0.166096
     12          6           0        2.378638   -0.985449    1.078819
     13          6           0        0.999791   -0.404595    0.746371
     14          1           0        0.344844   -0.390394    1.632519
     15          7           0        0.406038   -1.282210   -0.263315
     16          6           0       -0.825130   -1.015656   -0.598036
     17          1           0       -2.095380    1.980343    0.508570
     18          1           0       -0.006529    2.751890    0.444025
     19          1           0        1.458318    0.499243   -1.794906
     20          1           0        2.111237    2.093245   -1.391248
     21          1           0        3.955397    0.400932   -1.703674
     22          1           0        3.940638    1.087206   -0.084418
     23          1           0        2.836092   -1.648467   -0.904935
     24          1           0        4.268063   -1.346061    0.080419
     25          1           0        2.250651   -2.012384    1.437015
     26          1           0        2.838488   -0.409336    1.893706
     27          1           0       -1.378748   -1.938140   -0.849371
 ---------------------------------------------------------------------

 Alpha  occ. eigenvalues --  -20.59374 -20.59013 -15.84935 -15.64131 -15.56761
 Alpha  occ. eigenvalues --  -11.35204 -11.29833 -11.29115 -11.28523 -11.27052
 Alpha  occ. eigenvalues --  -11.23780 -11.23286 -11.22766 -11.22187  -1.57272
 Alpha  occ. eigenvalues --   -1.36853  -1.30767  -1.23130  -1.14742  -1.09832
 Alpha  occ. eigenvalues --   -1.02836  -1.01265  -0.94381  -0.89722  -0.85616
 Alpha  occ. eigenvalues --   -0.82371  -0.78506  -0.77361  -0.74916  -0.71978
 Alpha  occ. eigenvalues --   -0.69805  -0.69551  -0.67954  -0.64361  -0.63730
 Alpha  occ. eigenvalues --   -0.62397  -0.59862  -0.57605  -0.56673  -0.54926
 Alpha  occ. eigenvalues --   -0.54799  -0.50595  -0.49976  -0.48826  -0.48119
 Alpha  occ. eigenvalues --   -0.47467  -0.46474  -0.45564  -0.43805  -0.42129
 Alpha  occ. eigenvalues --   -0.40015  -0.33523
 Alpha virt. eigenvalues --    0.07165   0.10521   0.17395   0.21805   0.23839
 Alpha virt. eigenvalues --    0.24901   0.26768   0.27963   0.28971   0.29410
 Alpha virt. eigenvalues --    0.30579   0.31933   0.32337   0.32748   0.33842

 Mulliken charges:
               1
     1  O   -0.468688
     2  N    0.486668
     3  O   -0.498838
     4  C    0.024240
     5  C    0.188357
     6  N   -0.774132
     7  C    0.067618
     8  H    0.180015
     9  C   -0.302277
    10  C   -0.329413
    11  C   -0.321922
    12  C   -0.306894
    13  C   -0.056321
    14  H    0.193341
    15  N   -0.466810
    16  C    0.057706
    17  H    0.288460
    18  H    0.401441
    19  H    0.192127
    20  H    0.161991
    21  H    0.175539
    22  H    0.149910
    23  H    0.199679
    24  H    0.165257
    25  H    0.187058
    26  H    0.151249
    27  H    0.254641
 Sum of Mulliken charges =  -0.00000

 Dipole moment (field-independent basis, Debye):
    X=              5.3895    Y=              4.9251    Z=              1.0821  Tot=              7.3807
 Quadrupole moment (field-independent basis, Debye-Ang):
   XX=           -105.5410   YY=            -78.7802   ZZ=            -82.6430
   XY=             -2.5605   XZ=              1.6959   YZ=              0.5783

 Normal termination of Gaussian 16 at Sat Jul  1 06:00:07 2023.
