 Gaussian 09, Revision A.01,
 Gaussian 09:  EM64L-G09RevA.01  8-May-2009

 ------------------------------
 #HF/6-31G* Opt=Z-matrix NoSymm
 ------------------------------

 ------------------------------
 water interaction with atom F6
 ------------------------------
 Symbolic Z-matrix:
 Charge =  0 Multiplicity = 1

 SCF Done:  E(RHF) =  -1154.67242033     A.U. after   15 cycles
 SCF Done:  E(RHF) =  -1154.67243406     A.U. after    7 cycles
 SCF Done:  E(RHF) =  -1154.67245739     A.U. after    7 cycles
 SCF Done:  E(RHF) =  -1154.67248947     A.U. after    9 cycles
 SCF Done:  E(RHF) =  -1154.67250862     A.U. after   10 cycles
 SCF Done:  E(RHF) =  -1154.67250864     A.U. after    5 cycles
 Optimization completed.
    -- Stationary point found.

                         Z-Matrix orientation:
 ---------------------------------------------------------------------
 Center     Atomic      Atomic             Coordinates (Angstroms)
 Number     Number       Type             X           Y           Z
 ---------------------------------------------------------------------
      1          9           0       -1.969300    2.053680    0.000070
      2          6           0       -1.222250    0.944230    0.000030
      3          6           0        0.140030    1.057400   -0.000020
      4          6           0        0.927950   -0.123640   -0.000080
      5          6           0        2.414660   -0.018650   -0.000010
      6          9           0        3.007080   -1.234610   -0.000560
      7          9           0        2.858290    0.654480   -1.086020
      8          9           0        2.858270    0.653500    1.086650
      9          6           0        0.306540   -1.341490   -0.000090
     10          7           0       -1.054170   -1.389970   -0.000060
     11          6           0       -1.930500   -0.312100    0.000000
     12         16           0       -3.570980   -0.506610    0.000030
     13          1           0        0.596860    2.043100   -0.000020
     14          1           0        0.831760   -2.288990   -0.000150
     15          1           0       -1.521480   -2.296390   -0.000090
     16         -1           0        2.108099   -1.672597   -0.000774
     17         -1           0        1.670112   -0.773616   -0.000368
     18          1           0        4.094126   -3.465806   -0.001569
     19         -1           0        3.195145   -3.903793   -0.001784
     20          8           0        4.513367   -4.326311   -0.001958
     21          1           0        3.785458   -4.947905   -0.002255
 ---------------------------------------------------------------------

 Alpha  occ. eigenvalues --  -91.90855 -26.38163 -26.36497 -26.36495 -26.33793
 Alpha  occ. eigenvalues --  -20.56700 -15.69165 -11.54976 -11.38229 -11.37602
 Alpha  occ. eigenvalues --  -11.36725 -11.31616 -11.30895  -8.91941  -6.60269
 Alpha  occ. eigenvalues --   -6.59993  -6.59866  -1.74939  -1.66134  -1.65038
 Alpha  occ. eigenvalues --   -1.64971  -1.36006  -1.34877  -1.17636  -1.12513
 Alpha  occ. eigenvalues --   -1.03572  -0.97734  -0.93180  -0.88716  -0.85443
 Alpha  occ. eigenvalues --   -0.84630  -0.84060  -0.77501  -0.76413  -0.74337
 Alpha  occ. eigenvalues --   -0.73049  -0.72450  -0.71656  -0.71322  -0.70722
 Alpha  occ. eigenvalues --   -0.68403  -0.68299  -0.66769  -0.64428  -0.62978
 Alpha  occ. eigenvalues --   -0.61333  -0.59877  -0.57745  -0.52956  -0.50454
 Alpha  occ. eigenvalues --   -0.47017  -0.43687  -0.34476  -0.31380
 Alpha virt. eigenvalues --    0.04069   0.08242   0.16480   0.19413   0.24168
 Alpha virt. eigenvalues --    0.25321   0.26097   0.26176   0.28562   0.31573
 Alpha virt. eigenvalues --    0.33450   0.34819   0.39502   0.40013   0.42222

 Mulliken atomic charges:
              1
     1  F   -0.359053
     2  C    0.407694
     3  C   -0.173448
     4  C   -0.297447
     5  C    1.209113
     6  F   -0.390421
     7  F   -0.370228
     8  F   -0.370232
     9  C    0.175377
    10  N   -0.779827
    11  C    0.180869
    12  S   -0.225513
    13  H    0.282224
    14  H    0.276321
    15  H    0.441475
    16  H    0.434563
    17  O   -0.869416
    18  H    0.427950
 Sum of Mulliken atomic charges =   0.00000

 Dipole moment (field-independent basis, Debye):
    X=              1.1562    Y=             -1.8976    Z=             -0.0001  Tot=              2.2221
 Quadrupole moment (field-independent basis, Debye-Ang):
   XX=           -123.7532   YY=            -73.4525   ZZ=            -82.4592
   XY=             14.3541   XZ=              0.0053   YZ=             -0.0002

 Normal termination of Gaussian 09 at Fri Sep 24 08:03:56 2021.
