 Gaussian 09, Revision A.01,
 Gaussian 09:  EM64L-G09RevA.01  8-May-2009

 ------------------------------
 #HF/6-31G* Opt=Z-matrix NoSymm
 ------------------------------

 ------------------------------
 water interaction with atom F6
 ------------------------------
 Symbolic Z-matrix:
 Charge =  0 Multiplicity = 1

 SCF Done:  E(RHF) =  -1154.67483473     A.U. after   15 cycles
 SCF Done:  E(RHF) =  -1154.67483520     A.U. after    5 cycles
 SCF Done:  E(RHF) =  -1154.67483600     A.U. after    6 cycles
 SCF Done:  E(RHF) =  -1154.67483704     A.U. after    6 cycles
 SCF Done:  E(RHF) =  -1154.67483733     A.U. after    6 cycles
 Optimization completed.
    -- Stationary point found.

                         Z-Matrix orientation:
 ---------------------------------------------------------------------
 Center     Atomic      Atomic             Coordinates (Angstroms)
 Number     Number       Type             X           Y           Z
 ---------------------------------------------------------------------
      1          9           0       -1.969300    2.053680    0.000070
      2          6           0       -1.222250    0.944230    0.000030
      3          6           0        0.140030    1.057400   -0.000020
      4          6           0        0.927950   -0.123640   -0.000080
      5          6           0        2.414660   -0.018650   -0.000010
      6          9           0        3.007080   -1.234610   -0.000560
      7          9           0        2.858290    0.654480   -1.086020
      8          9           0        2.858270    0.653500    1.086650
      9          6           0        0.306540   -1.341490   -0.000090
     10          7           0       -1.054170   -1.389970   -0.000060
     11          6           0       -1.930500   -0.312100    0.000000
     12         16           0       -3.570980   -0.506610    0.000030
     13          1           0        0.596860    2.043100   -0.000020
     14          1           0        0.831760   -2.288990   -0.000150
     15          1           0       -1.521480   -2.296390   -0.000090
     16         -1           0        2.108099   -1.672597   -0.000774
     17         -1           0        1.670112   -0.773616   -0.000368
     18          1           0        4.015254   -3.303917   -0.001496
     19         -1           0        3.116272   -3.741904   -0.001710
     20          8           0        4.434495   -4.164422   -0.001885
     21          1           0        5.372627   -3.974316   -0.001784
 ---------------------------------------------------------------------

 Alpha  occ. eigenvalues --  -91.90595 -26.38340 -26.36581 -26.36578 -26.33581
 Alpha  occ. eigenvalues --  -20.56454 -15.68847 -11.55011 -11.37962 -11.37350
 Alpha  occ. eigenvalues --  -11.36389 -11.31414 -11.30625  -8.91682  -6.60010
 Alpha  occ. eigenvalues --   -6.59734  -6.59607  -1.75066  -1.66285  -1.65062
 Alpha  occ. eigenvalues --   -1.64831  -1.35690  -1.34658  -1.17421  -1.12242
 Alpha  occ. eigenvalues --   -1.03466  -0.97559  -0.93044  -0.88476  -0.85338
 Alpha  occ. eigenvalues --   -0.84752  -0.84166  -0.77293  -0.76252  -0.74106
 Alpha  occ. eigenvalues --   -0.73179  -0.72505  -0.71457  -0.71153  -0.70494
 Alpha  occ. eigenvalues --   -0.68470  -0.68415  -0.66875  -0.64273  -0.62669
 Alpha  occ. eigenvalues --   -0.61118  -0.59717  -0.57595  -0.52704  -0.50274
 Alpha  occ. eigenvalues --   -0.46795  -0.43413  -0.34217  -0.31128
 Alpha virt. eigenvalues --    0.04332   0.08522   0.17294   0.20261   0.24348
 Alpha virt. eigenvalues --    0.25155   0.26185   0.26308   0.29210   0.32793
 Alpha virt. eigenvalues --    0.33619   0.35142   0.40028   0.40052   0.42419

 Mulliken atomic charges:
              1
     1  F   -0.359689
     2  C    0.406750
     3  C   -0.173624
     4  C   -0.300731
     5  C    1.207969
     6  F   -0.391485
     7  F   -0.370951
     8  F   -0.370955
     9  C    0.173927
    10  N   -0.780300
    11  C    0.181312
    12  S   -0.226421
    13  H    0.280282
    14  H    0.289902
    15  H    0.443584
    16  H    0.437275
    17  O   -0.882110
    18  H    0.435266
 Sum of Mulliken atomic charges =   0.00000

 Dipole moment (field-independent basis, Debye):
    X=              4.2386    Y=             -0.4787    Z=              0.0006  Tot=              4.2655
 Quadrupole moment (field-independent basis, Debye-Ang):
   XX=            -94.8137   YY=            -87.0111   ZZ=            -82.4630
   XY=              6.9838   XZ=              0.0022   YZ=             -0.0066

 Normal termination of Gaussian 09 at Fri Sep 24 08:06:10 2021.
