 Gaussian 09, Revision A.01,
 Gaussian 09:  EM64L-G09RevA.01  8-May-2009

 ------------------------------
 #HF/6-31G* Opt=Z-matrix NoSymm
 ------------------------------

 ------------------------------
 water interaction with atom F6
 ------------------------------
 Symbolic Z-matrix:
 Charge =  0 Multiplicity = 1

 SCF Done:  E(RHF) =  -1154.67403061     A.U. after   15 cycles
 SCF Done:  E(RHF) =  -1154.67403105     A.U. after    5 cycles
 SCF Done:  E(RHF) =  -1154.67403178     A.U. after    6 cycles
 SCF Done:  E(RHF) =  -1154.67403276     A.U. after    6 cycles
 SCF Done:  E(RHF) =  -1154.67403308     A.U. after    6 cycles
 Optimization completed.
    -- Stationary point found.

                         Z-Matrix orientation:
 ---------------------------------------------------------------------
 Center     Atomic      Atomic             Coordinates (Angstroms)
 Number     Number       Type             X           Y           Z
 ---------------------------------------------------------------------
      1          9           0       -1.969300    2.053680    0.000070
      2          6           0       -1.222250    0.944230    0.000030
      3          6           0        0.140030    1.057400   -0.000020
      4          6           0        0.927950   -0.123640   -0.000080
      5          6           0        2.414660   -0.018650   -0.000010
      6          9           0        3.007080   -1.234610   -0.000560
      7          9           0        2.858290    0.654480   -1.086020
      8          9           0        2.858270    0.653500    1.086650
      9          6           0        0.306540   -1.341490   -0.000090
     10          7           0       -1.054170   -1.389970   -0.000060
     11          6           0       -1.930500   -0.312100    0.000000
     12         16           0       -3.570980   -0.506610    0.000030
     13          1           0        0.596860    2.043100   -0.000020
     14          1           0        0.831760   -2.288990   -0.000150
     15          1           0       -1.521480   -2.296390   -0.000090
     16         -1           0        2.108099   -1.672597   -0.000774
     17         -1           0        1.670112   -0.773616   -0.000368
     18          1           0        4.025743   -3.325446   -0.001506
     19         -1           0        3.126761   -3.763433   -0.001720
     20          8           0        4.444984   -4.185951   -0.001895
     21          1           0        4.550081   -4.402121    0.924635
 ---------------------------------------------------------------------

 Alpha  occ. eigenvalues --  -91.90714 -26.38323 -26.36611 -26.36509 -26.33680
 Alpha  occ. eigenvalues --  -20.56545 -15.68987 -11.55024 -11.38083 -11.37466
 Alpha  occ. eigenvalues --  -11.36533 -11.31510 -11.30751  -8.91801  -6.60129
 Alpha  occ. eigenvalues --   -6.59853  -6.59726  -1.75044  -1.66265  -1.65037
 Alpha  occ. eigenvalues --   -1.64928  -1.35830  -1.34742  -1.17525  -1.12365
 Alpha  occ. eigenvalues --   -1.03531  -0.97648  -0.93121  -0.88587  -0.85398
 Alpha  occ. eigenvalues --   -0.84744  -0.84148  -0.77392  -0.76333  -0.74208
 Alpha  occ. eigenvalues --   -0.73155  -0.72520  -0.71551  -0.71192  -0.70600
 Alpha  occ. eigenvalues --   -0.68477  -0.68394  -0.66852  -0.64349  -0.62808
 Alpha  occ. eigenvalues --   -0.61217  -0.59799  -0.57631  -0.52820  -0.50353
 Alpha  occ. eigenvalues --   -0.46902  -0.43539  -0.34335  -0.31245
 Alpha virt. eigenvalues --    0.04211   0.08392   0.17061   0.20038   0.24266
 Alpha virt. eigenvalues --    0.25050   0.26074   0.26206   0.29055   0.32549
 Alpha virt. eigenvalues --    0.33542   0.35002   0.39897   0.40008   0.42338

 Mulliken atomic charges:
              1
     1  F   -0.359408
     2  C    0.407146
     3  C   -0.173586
     4  C   -0.299506
     5  C    1.208656
     6  F   -0.391177
     7  F   -0.369667
     8  F   -0.371360
     9  C    0.173110
    10  N   -0.780143
    11  C    0.181045
    12  S   -0.225948
    13  H    0.281169
    14  H    0.285833
    15  H    0.442893
    16  H    0.437053
    17  O   -0.878196
    18  H    0.432085
 Sum of Mulliken atomic charges =   0.00000

 Dipole moment (field-independent basis, Debye):
    X=              2.6767    Y=             -1.1975    Z=              1.7169  Tot=              3.3980
 Quadrupole moment (field-independent basis, Debye-Ang):
   XX=           -111.0871   YY=            -80.6032   ZZ=            -80.2055
   XY=              9.6888   XZ=              8.0442   YZ=             -7.9196

 Normal termination of Gaussian 09 at Fri Sep 24 08:07:06 2021.
