 Gaussian 16, Revision C.02,
 Gaussian 16:  ES64L-G16RevC.02  7-Dec-2021

 ---------------------------------------------------------
 #MP2/6-31G* SCF=Tight Opt=(ModRedun, MaxCycle=20 ) NoSymm
 ---------------------------------------------------------

 --------
 MolName:
 --------
 Symbolic Z-matrix:
 Charge =  0 Multiplicity = 1

 SCF Done:  E(RHF) =  -661.276250093     A.U. after   16 cycles
 E2 =    -0.2038587843D+01 EUMP2 =    -0.66331483793619D+03
 SCF Done:  E(RHF) =  -661.294537206     A.U. after   15 cycles
 E2 =    -0.2033464526D+01 EUMP2 =    -0.66332800173170D+03
 SCF Done:  E(RHF) =  -661.294708766     A.U. after   15 cycles
 E2 =    -0.2034504340D+01 EUMP2 =    -0.66332921310550D+03
 SCF Done:  E(RHF) =  -661.288381157     A.U. after   17 cycles
 E2 =    -0.2037897400D+01 EUMP2 =    -0.66332627855698D+03
 SCF Done:  E(RHF) =  -661.294983530     A.U. after   13 cycles
 E2 =    -0.2035784653D+01 EUMP2 =    -0.66333076818342D+03
 SCF Done:  E(RHF) =  -661.295864706     A.U. after   13 cycles
 E2 =    -0.2035368968D+01 EUMP2 =    -0.66333123367427D+03
 SCF Done:  E(RHF) =  -661.296259996     A.U. after   12 cycles
 E2 =    -0.2035120042D+01 EUMP2 =    -0.66333138003792D+03
 SCF Done:  E(RHF) =  -661.296295177     A.U. after   12 cycles
 E2 =    -0.2035116868D+01 EUMP2 =    -0.66333141204504D+03
 SCF Done:  E(RHF) =  -661.296190045     A.U. after   11 cycles
 E2 =    -0.2035232311D+01 EUMP2 =    -0.66333142235625D+03
 SCF Done:  E(RHF) =  -661.296157514     A.U. after    9 cycles
 E2 =    -0.2035265692D+01 EUMP2 =    -0.66333142320622D+03
 Optimization completed.
    -- Stationary point found.

                          Input orientation:
 ---------------------------------------------------------------------
 Center     Atomic      Atomic             Coordinates (Angstroms)
 Number     Number       Type             X           Y           Z
 ---------------------------------------------------------------------
      1          8           0       -3.414039   -1.405544   -0.324074
      2          7           0       -3.138316   -0.206652   -0.091395
      3          8           0       -3.947340    0.716476    0.076893
      4          6           0       -1.689761   -0.021958   -0.027977
      5          6           0       -1.298855    1.259155    0.264687
      6          7           0       -0.056202    1.755589    0.373551
      7          6           0        1.204349    1.026541    0.353346
      8          1           0        1.850356    1.552771    1.072438
      9          6           0        1.916542    1.035245   -0.998021
     10          6           0        3.312016    0.424161   -0.825930
     11          6           0        3.256135   -0.971907   -0.199914
     12          6           0        2.453548   -0.980336    1.102983
     13          6           0        1.047056   -0.421742    0.859330
     14          1           0        0.465865   -0.397643    1.794932
     15          7           0        0.402977   -1.311703   -0.101239
     16          6           0       -0.841562   -1.135224   -0.409502
     17          1           0       -2.095779    1.983285    0.418839
     18          1           0        0.001272    2.738424    0.612026
     19          1           0        1.324940    0.460238   -1.718355
     20          1           0        1.988026    2.063167   -1.374771
     21          1           0        3.821891    0.384628   -1.795351
     22          1           0        3.910059    1.088405   -0.185834
     23          1           0        2.780399   -1.667042   -0.898712
     24          1           0        4.273171   -1.338546   -0.016882
     25          1           0        2.362853   -2.002081    1.486242
     26          1           0        2.961096   -0.384227    1.873980
     27          1           0       -1.287696   -1.882490   -1.063271
 ---------------------------------------------------------------------

 Alpha  occ. eigenvalues --  -20.59957 -20.58980 -15.84911 -15.63840 -15.56059
 Alpha  occ. eigenvalues --  -11.34726 -11.29493 -11.29480 -11.28558 -11.27047
 Alpha  occ. eigenvalues --  -11.23605 -11.23121 -11.22618 -11.22015  -1.57290
 Alpha  occ. eigenvalues --   -1.37507  -1.30744  -1.22940  -1.14426  -1.09558
 Alpha  occ. eigenvalues --   -1.02641  -1.01170  -0.94019  -0.89824  -0.85447
 Alpha  occ. eigenvalues --   -0.82372  -0.78510  -0.77492  -0.74979  -0.72011
 Alpha  occ. eigenvalues --   -0.70144  -0.69637  -0.67710  -0.64767  -0.63733
 Alpha  occ. eigenvalues --   -0.62205  -0.60203  -0.57567  -0.56913  -0.54984
 Alpha  occ. eigenvalues --   -0.54486  -0.50687  -0.50001  -0.48262  -0.48215
 Alpha  occ. eigenvalues --   -0.47614  -0.46080  -0.46046  -0.44075  -0.41492
 Alpha  occ. eigenvalues --   -0.39779  -0.33729
 Alpha virt. eigenvalues --    0.07796   0.11746   0.17449   0.21894   0.24096
 Alpha virt. eigenvalues --    0.25664   0.27186   0.28798   0.29125   0.29685
 Alpha virt. eigenvalues --    0.30688   0.31904   0.32081   0.32828   0.34030

 Mulliken charges:
               1
     1  O   -0.469428
     2  N    0.505927
     3  O   -0.504809
     4  C   -0.004659
     5  C    0.185332
     6  N   -0.782904
     7  C    0.060872
     8  H    0.179073
     9  C   -0.301008
    10  C   -0.327838
    11  C   -0.321177
    12  C   -0.306421
    13  C   -0.036548
    14  H    0.189417
    15  N   -0.510786
    16  C    0.131158
    17  H    0.287794
    18  H    0.403650
    19  H    0.189642
    20  H    0.161027
    21  H    0.174166
    22  H    0.149058
    23  H    0.199674
    24  H    0.164120
    25  H    0.186669
    26  H    0.150168
    27  H    0.247831
 Sum of Mulliken charges =  -0.00000

 Dipole moment (field-independent basis, Debye):
    X=              5.1476    Y=              4.8272    Z=              1.2152  Tot=              7.1607
 Quadrupole moment (field-independent basis, Debye-Ang):
   XX=           -104.9567   YY=            -79.4708   ZZ=            -81.4579
   XY=             -2.0686   XZ=              0.2036   YZ=              1.9603

 Normal termination of Gaussian 16 at Sat Jul  1 13:39:12 2023.
