 Gaussian 16, Revision C.02,
 Gaussian 16:  ES64L-G16RevC.02  7-Dec-2021

 ---------------------------------------------------------
 #MP2/6-31G* SCF=Tight Opt=(ModRedun, MaxCycle=20 ) NoSymm
 ---------------------------------------------------------

 --------
 MolName:
 --------
 Symbolic Z-matrix:
 Charge =  0 Multiplicity = 1

 SCF Done:  E(RHF) =  -661.279561873     A.U. after   16 cycles
 E2 =    -0.2037896142D+01 EUMP2 =    -0.66331745801459D+03
 SCF Done:  E(RHF) =  -661.297507611     A.U. after   14 cycles
 E2 =    -0.2032849461D+01 EUMP2 =    -0.66333035707155D+03
 SCF Done:  E(RHF) =  -661.298775207     A.U. after   14 cycles
 E2 =    -0.2033786035D+01 EUMP2 =    -0.66333256124283D+03
 SCF Done:  E(RHF) =  -661.287937178     A.U. after   17 cycles
 E2 =    -0.2037082634D+01 EUMP2 =    -0.66332501981177D+03
 SCF Done:  E(RHF) =  -661.298203854     A.U. after   14 cycles
 E2 =    -0.2035361322D+01 EUMP2 =    -0.66333356517651D+03
 SCF Done:  E(RHF) =  -661.298892699     A.U. after   12 cycles
 E2 =    -0.2034887590D+01 EUMP2 =    -0.66333378028853D+03
 SCF Done:  E(RHF) =  -661.299362538     A.U. after   12 cycles
 E2 =    -0.2034483153D+01 EUMP2 =    -0.66333384569117D+03
 SCF Done:  E(RHF) =  -661.299311665     A.U. after   11 cycles
 E2 =    -0.2034541817D+01 EUMP2 =    -0.66333385348288D+03
 SCF Done:  E(RHF) =  -661.299237816     A.U. after   11 cycles
 E2 =    -0.2034617064D+01 EUMP2 =    -0.66333385488045D+03
 Optimization completed.
    -- Stationary point found.

                          Input orientation:
 ---------------------------------------------------------------------
 Center     Atomic      Atomic             Coordinates (Angstroms)
 Number     Number       Type             X           Y           Z
 ---------------------------------------------------------------------
      1          8           0       -3.459642   -1.398519   -0.350317
      2          7           0       -3.128814   -0.219142   -0.106726
      3          8           0       -3.920616    0.723045    0.064107
      4          6           0       -1.687783   -0.022412   -0.019154
      5          6           0       -1.299990    1.260232    0.270415
      6          7           0       -0.056577    1.753053    0.380857
      7          6           0        1.205078    1.025197    0.357149
      8          1           0        1.851996    1.552397    1.074619
      9          6           0        1.912819    1.035617   -0.996477
     10          6           0        3.309646    0.426438   -0.828687
     11          6           0        3.257499   -0.969939   -0.202991
     12          6           0        2.458738   -0.979889    1.102182
     13          6           0        1.050738   -0.423526    0.862227
     14          1           0        0.471811   -0.401217    1.799221
     15          7           0        0.405589   -1.314610   -0.096698
     16          6           0       -0.840268   -1.136175   -0.398660
     17          1           0       -2.095997    1.985583    0.419297
     18          1           0        0.001861    2.736862    0.615503
     19          1           0        1.319826    0.459767   -1.714978
     20          1           0        1.981677    2.063704   -1.373254
     21          1           0        3.816474    0.387987   -1.799713
     22          1           0        3.908694    1.091332   -0.190250
     23          1           0        2.780636   -1.665519   -0.900585
     24          1           0        4.275531   -1.335278   -0.023076
     25          1           0        2.370557   -2.001858    1.485348
     26          1           0        2.967480   -0.383219    1.871925
     27          1           0       -1.294952   -1.887920   -1.042285
 ---------------------------------------------------------------------

 Alpha  occ. eigenvalues --  -20.59423 -20.59110 -15.84818 -15.63994 -15.56082
 Alpha  occ. eigenvalues --  -11.34878 -11.29553 -11.29518 -11.28574 -11.27090
 Alpha  occ. eigenvalues --  -11.23667 -11.23164 -11.22654 -11.22052  -1.57216
 Alpha  occ. eigenvalues --   -1.37121  -1.30866  -1.23005  -1.14576  -1.09701
 Alpha  occ. eigenvalues --   -1.02725  -1.01242  -0.94259  -0.89747  -0.85506
 Alpha  occ. eigenvalues --   -0.82413  -0.78561  -0.77455  -0.75095  -0.72020
 Alpha  occ. eigenvalues --   -0.69958  -0.69553  -0.67767  -0.64828  -0.63758
 Alpha  occ. eigenvalues --   -0.62291  -0.60242  -0.57636  -0.56956  -0.55032
 Alpha  occ. eigenvalues --   -0.54534  -0.50723  -0.50053  -0.48456  -0.48116
 Alpha  occ. eigenvalues --   -0.47571  -0.46111  -0.46057  -0.43883  -0.41599
 Alpha  occ. eigenvalues --   -0.39809  -0.33782
 Alpha virt. eigenvalues --    0.07633   0.11772   0.17378   0.21874   0.24114
 Alpha virt. eigenvalues --    0.25674   0.27161   0.28749   0.29086   0.29662
 Alpha virt. eigenvalues --    0.30689   0.31853   0.32058   0.32798   0.33991

 Mulliken charges:
               1
     1  O   -0.468170
     2  N    0.498878
     3  O   -0.504569
     4  C   -0.002485
     5  C    0.187212
     6  N   -0.781553
     7  C    0.060472
     8  H    0.179599
     9  C   -0.301211
    10  C   -0.327896
    11  C   -0.321353
    12  C   -0.306526
    13  C   -0.036850
    14  H    0.189682
    15  N   -0.510922
    16  C    0.124879
    17  H    0.291691
    18  H    0.404282
    19  H    0.189935
    20  H    0.161210
    21  H    0.174410
    22  H    0.149209
    23  H    0.199836
    24  H    0.164332
    25  H    0.186872
    26  H    0.150248
    27  H    0.248789
 Sum of Mulliken charges =  -0.00000

 Dipole moment (field-independent basis, Debye):
    X=              5.2837    Y=              4.8134    Z=              1.2556  Tot=              7.2569
 Quadrupole moment (field-independent basis, Debye-Ang):
   XX=           -105.5536   YY=            -79.3438   ZZ=            -81.4761
   XY=             -1.9167   XZ=              0.0181   YZ=              1.9080

 Normal termination of Gaussian 16 at Sat Jul  1 13:17:07 2023.
