 Gaussian 16, Revision C.02,
 Gaussian 16:  ES64L-G16RevC.02  7-Dec-2021

 ---------------------------------------------------------
 #MP2/6-31G* SCF=Tight Opt=(ModRedun, MaxCycle=20 ) NoSymm
 ---------------------------------------------------------

 --------
 MolName:
 --------
 Symbolic Z-matrix:
 Charge =  0 Multiplicity = 1

 SCF Done:  E(RHF) =  -661.280922328     A.U. after   16 cycles
 E2 =    -0.2037371934D+01 EUMP2 =    -0.66331829426208D+03
 SCF Done:  E(RHF) =  -661.298451051     A.U. after   15 cycles
 E2 =    -0.2032529876D+01 EUMP2 =    -0.66333098092786D+03
 SCF Done:  E(RHF) =  -661.298962474     A.U. after   15 cycles
 E2 =    -0.2033476353D+01 EUMP2 =    -0.66333243882762D+03
 SCF Done:  E(RHF) =  -661.289550608     A.U. after   17 cycles
 E2 =    -0.2036633425D+01 EUMP2 =    -0.66332618403262D+03
 SCF Done:  E(RHF) =  -661.299150683     A.U. after   14 cycles
 E2 =    -0.2035131339D+01 EUMP2 =    -0.66333428202187D+03
 SCF Done:  E(RHF) =  -661.299976938     A.U. after   13 cycles
 E2 =    -0.2034586896D+01 EUMP2 =    -0.66333456383399D+03
 SCF Done:  E(RHF) =  -661.300454017     A.U. after   12 cycles
 E2 =    -0.2034179737D+01 EUMP2 =    -0.66333463375368D+03
 SCF Done:  E(RHF) =  -661.300465949     A.U. after   11 cycles
 E2 =    -0.2034181837D+01 EUMP2 =    -0.66333464778652D+03
 SCF Done:  E(RHF) =  -661.300403167     A.U. after   10 cycles
 E2 =    -0.2034246102D+01 EUMP2 =    -0.66333464926828D+03
 Optimization completed.
    -- Stationary point found.

                          Input orientation:
 ---------------------------------------------------------------------
 Center     Atomic      Atomic             Coordinates (Angstroms)
 Number     Number       Type             X           Y           Z
 ---------------------------------------------------------------------
      1          8           0       -3.506809   -1.390014   -0.372147
      2          7           0       -3.121159   -0.232113   -0.119166
      3          8           0       -3.895351    0.728828    0.054966
      4          6           0       -1.686643   -0.023719   -0.009928
      5          6           0       -1.301408    1.260798    0.275097
      6          7           0       -0.057225    1.750102    0.386626
      7          6           0        1.205623    1.023856    0.359524
      8          1           0        1.853316    1.552827    1.074900
      9          6           0        1.909161    1.035179   -0.996307
     10          6           0        3.307523    0.428481   -0.832205
     11          6           0        3.259523   -0.967734   -0.205828
     12          6           0        2.464425   -0.978566    1.101588
     13          6           0        1.054718   -0.424869    0.865121
     14          1           0        0.478166   -0.403653    1.803525
     15          7           0        0.408239   -1.317835   -0.091285
     16          6           0       -0.839026   -1.137914   -0.386731
     17          1           0       -2.096190    1.987672    0.418638
     18          1           0        0.001914    2.735046    0.616654
     19          1           0        1.315020    0.457868   -1.712641
     20          1           0        1.975191    2.063189   -1.373771
     21          1           0        3.811523    0.390551   -1.804701
     22          1           0        3.907260    1.094677   -0.195808
     23          1           0        2.781935   -1.664424   -0.901797
     24          1           0        4.278687   -1.331205   -0.028678
     25          1           0        2.379061   -2.000510    1.485353
     26          1           0        2.974257   -0.380729    1.869696
     27          1           0       -1.300730   -1.892809   -1.022665
 ---------------------------------------------------------------------

 Alpha  occ. eigenvalues --  -20.59236 -20.58903 -15.84722 -15.64136 -15.56108
 Alpha  occ. eigenvalues --  -11.35016 -11.29622 -11.29557 -11.28625 -11.27133
 Alpha  occ. eigenvalues --  -11.23728 -11.23207 -11.22691 -11.22089  -1.57127
 Alpha  occ. eigenvalues --   -1.36717  -1.30979  -1.23067  -1.14701  -1.09817
 Alpha  occ. eigenvalues --   -1.02805  -1.01306  -0.94480  -0.89685  -0.85565
 Alpha  occ. eigenvalues --   -0.82448  -0.78612  -0.77412  -0.75201  -0.72022
 Alpha  occ. eigenvalues --   -0.69775  -0.69442  -0.67821  -0.64892  -0.63780
 Alpha  occ. eigenvalues --   -0.62368  -0.60280  -0.57700  -0.57001  -0.55077
 Alpha  occ. eigenvalues --   -0.54583  -0.50761  -0.50110  -0.48656  -0.48103
 Alpha  occ. eigenvalues --   -0.47373  -0.46147  -0.46044  -0.43679  -0.41695
 Alpha  occ. eigenvalues --   -0.39844  -0.33827
 Alpha virt. eigenvalues --    0.07470   0.11801   0.17307   0.21849   0.24114
 Alpha virt. eigenvalues --    0.25667   0.27134   0.28694   0.29045   0.29636
 Alpha virt. eigenvalues --    0.30684   0.31799   0.32037   0.32767   0.33951

 Mulliken charges:
               1
     1  O   -0.467261
     2  N    0.491442
     3  O   -0.504068
     4  C    0.000381
     5  C    0.188926
     6  N   -0.780255
     7  C    0.060178
     8  H    0.180067
     9  C   -0.301410
    10  C   -0.327953
    11  C   -0.321489
    12  C   -0.306650
    13  C   -0.037120
    14  H    0.189945
    15  N   -0.511224
    16  C    0.119948
    17  H    0.295288
    18  H    0.404874
    19  H    0.190199
    20  H    0.161386
    21  H    0.174648
    22  H    0.149361
    23  H    0.199934
    24  H    0.164540
    25  H    0.187057
    26  H    0.150335
    27  H    0.248920
 Sum of Mulliken charges =  -0.00000

 Dipole moment (field-independent basis, Debye):
    X=              5.4151    Y=              4.7956    Z=              1.2841  Tot=              7.3464
 Quadrupole moment (field-independent basis, Debye-Ang):
   XX=           -106.1353   YY=            -79.2249   ZZ=            -81.5002
   XY=             -1.7632   XZ=             -0.1385   YZ=              1.8573

 Normal termination of Gaussian 16 at Sat Jul  1 12:14:20 2023.
