 Gaussian 16, Revision C.02,
 Gaussian 16:  ES64L-G16RevC.02  7-Dec-2021

 ---------------------------------------------------------
 #MP2/6-31G* SCF=Tight Opt=(ModRedun, MaxCycle=20 ) NoSymm
 ---------------------------------------------------------

 --------
 MolName:
 --------
 Symbolic Z-matrix:
 Charge =  0 Multiplicity = 1

 SCF Done:  E(RHF) =  -661.280420444     A.U. after   16 cycles
 E2 =    -0.2037011970D+01 EUMP2 =    -0.66331743241366D+03
 SCF Done:  E(RHF) =  -661.297456468     A.U. after   15 cycles
 E2 =    -0.2032486947D+01 EUMP2 =    -0.66332994341496D+03
 SCF Done:  E(RHF) =  -661.297441362     A.U. after   15 cycles
 E2 =    -0.2033407700D+01 EUMP2 =    -0.66333084906160D+03
 SCF Done:  E(RHF) =  -661.287888220     A.U. after   17 cycles
 E2 =    -0.2036407027D+01 EUMP2 =    -0.66332429524783D+03
 SCF Done:  E(RHF) =  -661.298077385     A.U. after   14 cycles
 E2 =    -0.2035309400D+01 EUMP2 =    -0.66333338678549D+03
 SCF Done:  E(RHF) =  -661.299078106     A.U. after   14 cycles
 E2 =    -0.2034706194D+01 EUMP2 =    -0.66333378429979D+03
 SCF Done:  E(RHF) =  -661.299725792     A.U. after   12 cycles
 E2 =    -0.2034131643D+01 EUMP2 =    -0.66333385743570D+03
 SCF Done:  E(RHF) =  -661.299812647     A.U. after   11 cycles
 E2 =    -0.2034061930D+01 EUMP2 =    -0.66333387457725D+03
 SCF Done:  E(RHF) =  -661.299726473     A.U. after   10 cycles
 E2 =    -0.2034150099D+01 EUMP2 =    -0.66333387657194D+03
 Optimization completed.
    -- Stationary point found.

                          Input orientation:
 ---------------------------------------------------------------------
 Center     Atomic      Atomic             Coordinates (Angstroms)
 Number     Number       Type             X           Y           Z
 ---------------------------------------------------------------------
      1          8           0       -3.553719   -1.378834   -0.398152
      2          7           0       -3.114587   -0.244617   -0.134799
      3          8           0       -3.871409    0.734103    0.044240
      4          6           0       -1.685753   -0.024065   -0.004788
      5          6           0       -1.302802    1.261710    0.278278
      6          7           0       -0.057649    1.747118    0.392027
      7          6           0        1.206148    1.021992    0.362978
      8          1           0        1.853668    1.551662    1.077936
      9          6           0        1.907830    1.035333   -0.993787
     10          6           0        3.307153    0.430284   -0.831669
     11          6           0        3.261538   -0.966436   -0.206238
     12          6           0        2.467878   -0.979134    1.102030
     13          6           0        1.057205   -0.427141    0.867276
     14          1           0        0.481459   -0.407799    1.806140
     15          7           0        0.410688   -1.320257   -0.089036
     16          6           0       -0.837248   -1.137887   -0.380083
     17          1           0       -2.095955    1.990296    0.417400
     18          1           0        0.002339    2.732887    0.618536
     19          1           0        1.313567    0.457650   -1.709673
     20          1           0        1.972117    2.063663   -1.370640
     21          1           0        3.809930    0.393668   -1.804819
     22          1           0        3.906821    1.096774   -0.195553
     23          1           0        2.784061   -1.663216   -0.902180
     24          1           0        4.281321   -1.328774   -0.030473
     25          1           0        2.384194   -2.001399    1.485213
     26          1           0        2.977740   -0.381126    1.869972
     27          1           0       -1.304526   -1.894456   -1.011114
 ---------------------------------------------------------------------

 Alpha  occ. eigenvalues --  -20.59359 -20.58400 -15.84625 -15.64262 -15.56132
 Alpha  occ. eigenvalues --  -11.35143 -11.29684 -11.29601 -11.28706 -11.27171
 Alpha  occ. eigenvalues --  -11.23781 -11.23246 -11.22724 -11.22122  -1.57024
 Alpha  occ. eigenvalues --   -1.36305  -1.31074  -1.23129  -1.14799  -1.09903
 Alpha  occ. eigenvalues --   -1.02881  -1.01362  -0.94686  -0.89631  -0.85619
 Alpha  occ. eigenvalues --   -0.82477  -0.78655  -0.77368  -0.75297  -0.72014
 Alpha  occ. eigenvalues --   -0.69602  -0.69307  -0.67872  -0.64954  -0.63798
 Alpha  occ. eigenvalues --   -0.62432  -0.60318  -0.57757  -0.57042  -0.55118
 Alpha  occ. eigenvalues --   -0.54630  -0.50796  -0.50166  -0.48821  -0.48126
 Alpha  occ. eigenvalues --   -0.47139  -0.46172  -0.45996  -0.43466  -0.41784
 Alpha  occ. eigenvalues --   -0.39881  -0.33864
 Alpha virt. eigenvalues --    0.07305   0.11833   0.17239   0.21821   0.24104
 Alpha virt. eigenvalues --    0.25646   0.27103   0.28633   0.29007   0.29604
 Alpha virt. eigenvalues --    0.30671   0.31742   0.32017   0.32738   0.33914

 Mulliken charges:
               1
     1  O   -0.466613
     2  N    0.483707
     3  O   -0.503458
     4  C    0.003893
     5  C    0.190507
     6  N   -0.779070
     7  C    0.059957
     8  H    0.180483
     9  C   -0.301583
    10  C   -0.328010
    11  C   -0.321608
    12  C   -0.306770
    13  C   -0.037423
    14  H    0.190189
    15  N   -0.511631
    16  C    0.116314
    17  H    0.298518
    18  H    0.405397
    19  H    0.190447
    20  H    0.161535
    21  H    0.174861
    22  H    0.149501
    23  H    0.200018
    24  H    0.164728
    25  H    0.187209
    26  H    0.150424
    27  H    0.248477
 Sum of Mulliken charges =  -0.00000

 Dipole moment (field-independent basis, Debye):
    X=              5.5369    Y=              4.7697    Z=              1.3185  Tot=              7.4260
 Quadrupole moment (field-independent basis, Debye-Ang):
   XX=           -106.6912   YY=            -79.1107   ZZ=            -81.5256
   XY=             -1.6044   XZ=             -0.3043   YZ=              1.8070

 Normal termination of Gaussian 16 at Sat Jul  1 12:34:14 2023.
