 Gaussian 16, Revision C.02,
 Gaussian 16:  ES64L-G16RevC.02  7-Dec-2021

 ---------------------------------------------------------
 #MP2/6-31G* SCF=Tight Opt=(ModRedun, MaxCycle=20 ) NoSymm
 ---------------------------------------------------------

 --------
 MolName:
 --------
 Symbolic Z-matrix:
 Charge =  0 Multiplicity = 1

 SCF Done:  E(RHF) =  -661.278136620     A.U. after   16 cycles
 E2 =    -0.2036812432D+01 EUMP2 =    -0.66331494905188D+03
 SCF Done:  E(RHF) =  -661.294581118     A.U. after   15 cycles
 E2 =    -0.2032713052D+01 EUMP2 =    -0.66332729416960D+03
 SCF Done:  E(RHF) =  -661.294502947     A.U. after   15 cycles
 E2 =    -0.2033574551D+01 EUMP2 =    -0.66332807749750D+03
 SCF Done:  E(RHF) =  -661.283511130     A.U. after   17 cycles
 E2 =    -0.2036652882D+01 EUMP2 =    -0.66332016401181D+03
 SCF Done:  E(RHF) =  -661.295208850     A.U. after   15 cycles
 E2 =    -0.2035775036D+01 EUMP2 =    -0.66333098388606D+03
 SCF Done:  E(RHF) =  -661.296479508     A.U. after   14 cycles
 E2 =    -0.2035038572D+01 EUMP2 =    -0.66333151808070D+03
 SCF Done:  E(RHF) =  -661.297216497     A.U. after   12 cycles
 E2 =    -0.2034372132D+01 EUMP2 =    -0.66333158862860D+03
 SCF Done:  E(RHF) =  -661.297343342     A.U. after   11 cycles
 E2 =    -0.2034262223D+01 EUMP2 =    -0.66333160556512D+03
 SCF Done:  E(RHF) =  -661.297269863     A.U. after   11 cycles
 E2 =    -0.2034338192D+01 EUMP2 =    -0.66333160805503D+03
 SCF Done:  E(RHF) =  -661.297172416     A.U. after   10 cycles
 E2 =    -0.2034436222D+01 EUMP2 =    -0.66333160863752D+03
 Optimization completed.
    -- Stationary point found.

                          Input orientation:
 ---------------------------------------------------------------------
 Center     Atomic      Atomic             Coordinates (Angstroms)
 Number     Number       Type             X           Y           Z
 ---------------------------------------------------------------------
      1          8           0       -3.600958   -1.367292   -0.420573
      2          7           0       -3.109373   -0.257972   -0.149139
      3          8           0       -3.849112    0.738073    0.035998
      4          6           0       -1.685322   -0.024083   -0.002394
      5          6           0       -1.304497    1.262381    0.280573
      6          7           0       -0.058080    1.744591    0.395667
      7          6           0        1.206629    1.020618    0.365662
      8          1           0        1.853589    1.550548    1.080974
      9          6           0        1.907528    1.035989   -0.991423
     10          6           0        3.307542    0.432237   -0.830353
     11          6           0        3.263585   -0.965061   -0.206100
     12          6           0        2.470445   -0.979750    1.102433
     13          6           0        1.059142   -0.428965    0.868457
     14          1           0        0.483343   -0.411425    1.807331
     15          7           0        0.413268   -1.321841   -0.088719
     16          6           0       -0.835076   -1.137054   -0.376755
     17          1           0       -2.095788    1.992547    0.417654
     18          1           0        0.001777    2.730558    0.621853
     19          1           0        1.313449    0.458156   -1.707407
     20          1           0        1.970614    2.064662   -1.367625
     21          1           0        3.809923    0.396958   -1.803790
     22          1           0        3.906811    1.098855   -0.193954
     23          1           0        2.786527   -1.661750   -0.902502
     24          1           0        4.283815   -1.326555   -0.031057
     25          1           0        2.387767   -2.002528    1.484553
     26          1           0        2.980027   -0.382112    1.870878
     27          1           0       -1.306552   -1.895745   -1.003255
 ---------------------------------------------------------------------

 Alpha  occ. eigenvalues --  -20.59486 -20.57921 -15.84531 -15.64368 -15.56162
 Alpha  occ. eigenvalues --  -11.35259 -11.29739 -11.29654 -11.28824 -11.27210
 Alpha  occ. eigenvalues --  -11.23826 -11.23280 -11.22758 -11.22154  -1.56879
 Alpha  occ. eigenvalues --   -1.35868  -1.31141  -1.23184  -1.14871  -1.09964
 Alpha  occ. eigenvalues --   -1.02949  -1.01407  -0.94877  -0.89589  -0.85665
 Alpha  occ. eigenvalues --   -0.82500  -0.78684  -0.77324  -0.75382  -0.71989
 Alpha  occ. eigenvalues --   -0.69429  -0.69145  -0.67914  -0.65012  -0.63811
 Alpha  occ. eigenvalues --   -0.62480  -0.60355  -0.57804  -0.57078  -0.55155
 Alpha  occ. eigenvalues --   -0.54670  -0.50825  -0.50219  -0.48947  -0.48156
 Alpha  occ. eigenvalues --   -0.46941  -0.46187  -0.45885  -0.43245  -0.41865
 Alpha  occ. eigenvalues --   -0.39918  -0.33898
 Alpha virt. eigenvalues --    0.07126   0.11855   0.17172   0.21789   0.24085
 Alpha virt. eigenvalues --    0.25620   0.27062   0.28564   0.28969   0.29565
 Alpha virt. eigenvalues --    0.30650   0.31680   0.31998   0.32708   0.33880

 Mulliken charges:
               1
     1  O   -0.466005
     2  N    0.475351
     3  O   -0.502893
     4  C    0.008266
     5  C    0.191798
     6  N   -0.778078
     7  C    0.059861
     8  H    0.180829
     9  C   -0.301691
    10  C   -0.328059
    11  C   -0.321707
    12  C   -0.306876
    13  C   -0.037767
    14  H    0.190376
    15  N   -0.512077
    16  C    0.114046
    17  H    0.301401
    18  H    0.405854
    19  H    0.190623
    20  H    0.161731
    21  H    0.175039
    22  H    0.149612
    23  H    0.200079
    24  H    0.164890
    25  H    0.187328
    26  H    0.150526
    27  H    0.247542
 Sum of Mulliken charges =  -0.00000

 Dipole moment (field-independent basis, Debye):
    X=              5.6481    Y=              4.7350    Z=              1.3517  Tot=              7.4932
 Quadrupole moment (field-independent basis, Debye-Ang):
   XX=           -107.2307   YY=            -79.0091   ZZ=            -81.5455
   XY=             -1.4492   XZ=             -0.4416   YZ=              1.7820

 Normal termination of Gaussian 16 at Sat Jul  1 12:56:56 2023.
