 Gaussian 16, Revision C.02,
 Gaussian 16:  ES64L-G16RevC.02  7-Dec-2021

 ---------------------------------------------------------
 #MP2/6-31G* SCF=Tight Opt=(ModRedun, MaxCycle=20 ) NoSymm
 ---------------------------------------------------------

 --------
 MolName:
 --------
 Symbolic Z-matrix:
 Charge =  0 Multiplicity = 1

 SCF Done:  E(RHF) =  -661.279061969     A.U. after   16 cycles
 E2 =    -0.2038019640D+01 EUMP2 =    -0.66331708160911D+03
 SCF Done:  E(RHF) =  -661.297081284     A.U. after   14 cycles
 E2 =    -0.2032947384D+01 EUMP2 =    -0.66333002866831D+03
 SCF Done:  E(RHF) =  -661.298445469     A.U. after   14 cycles
 E2 =    -0.2033883336D+01 EUMP2 =    -0.66333232880558D+03
 SCF Done:  E(RHF) =  -661.290005125     A.U. after   17 cycles
 E2 =    -0.2036555431D+01 EUMP2 =    -0.66332656055597D+03
 SCF Done:  E(RHF) =  -661.297596345     A.U. after   14 cycles
 E2 =    -0.2035595441D+01 EUMP2 =    -0.66333319178620D+03
 SCF Done:  E(RHF) =  -661.298392500     A.U. after   12 cycles
 E2 =    -0.2035041194D+01 EUMP2 =    -0.66333343369413D+03
 SCF Done:  E(RHF) =  -661.298885290     A.U. after   12 cycles
 E2 =    -0.2034607778D+01 EUMP2 =    -0.66333349306795D+03
 SCF Done:  E(RHF) =  -661.298865142     A.U. after   11 cycles
 E2 =    -0.2034635409D+01 EUMP2 =    -0.66333350055141D+03
 SCF Done:  E(RHF) =  -661.298783040     A.U. after   10 cycles
 E2 =    -0.2034718664D+01 EUMP2 =    -0.66333350170428D+03
 Optimization completed.
    -- Stationary point found.

                          Input orientation:
 ---------------------------------------------------------------------
 Center     Atomic      Atomic             Coordinates (Angstroms)
 Number     Number       Type             X           Y           Z
 ---------------------------------------------------------------------
      1          8           0       -3.450808   -1.401045   -0.340805
      2          7           0       -3.130801   -0.217390   -0.100534
      3          8           0       -3.925972    0.721070    0.069898
      4          6           0       -1.688272   -0.022928   -0.019043
      5          6           0       -1.299853    1.259719    0.269910
      6          7           0       -0.056676    1.753446    0.379258
      7          6           0        1.204908    1.025714    0.355573
      8          1           0        1.852029    1.553259    1.072627
      9          6           0        1.912520    1.035305   -0.998136
     10          6           0        3.309365    0.426223   -0.830195
     11          6           0        3.257337   -0.969780   -0.203666
     12          6           0        2.458767   -0.979009    1.101634
     13          6           0        1.050731   -0.422673    0.861725
     14          1           0        0.472083   -0.399641    1.798879
     15          7           0        0.405214   -1.314258   -0.096486
     16          6           0       -0.840678   -1.136702   -0.398781
     17          1           0       -2.096090    1.984738    0.419951
     18          1           0        0.001601    2.737342    0.613466
     19          1           0        1.319402    0.459075   -1.716228
     20          1           0        1.981333    2.063181   -1.375508
     21          1           0        3.816077    0.387206   -1.801263
     22          1           0        3.908506    1.091486   -0.192220
     23          1           0        2.780395   -1.665774   -0.900786
     24          1           0        4.275407   -1.334988   -0.023678
     25          1           0        2.370621   -2.000777    1.485353
     26          1           0        2.967716   -0.381979    1.870970
     27          1           0       -1.293881   -1.887840   -1.043916
 ---------------------------------------------------------------------

 Alpha  occ. eigenvalues --  -20.59528 -20.59083 -15.84837 -15.63965 -15.56079
 Alpha  occ. eigenvalues --  -11.34848 -11.29539 -11.29513 -11.28568 -11.27082
 Alpha  occ. eigenvalues --  -11.23657 -11.23157 -11.22648 -11.22045  -1.57231
 Alpha  occ. eigenvalues --   -1.37198  -1.30846  -1.22992  -1.14548  -1.09675
 Alpha  occ. eigenvalues --   -1.02709  -1.01229  -0.94212  -0.89762  -0.85496
 Alpha  occ. eigenvalues --   -0.82405  -0.78552  -0.77463  -0.75073  -0.72019
 Alpha  occ. eigenvalues --   -0.69994  -0.69570  -0.67756  -0.64817  -0.63754
 Alpha  occ. eigenvalues --   -0.62276  -0.60235  -0.57624  -0.56948  -0.55023
 Alpha  occ. eigenvalues --   -0.54525  -0.50717  -0.50042  -0.48412  -0.48129
 Alpha  occ. eigenvalues --   -0.47596  -0.46104  -0.46059  -0.43922  -0.41578
 Alpha  occ. eigenvalues --   -0.39804  -0.33772
 Alpha virt. eigenvalues --    0.07667   0.11767   0.17392   0.21878   0.24111
 Alpha virt. eigenvalues --    0.25670   0.27167   0.28760   0.29092   0.29667
 Alpha virt. eigenvalues --    0.30690   0.31863   0.32062   0.32804   0.33997

 Mulliken charges:
               1
     1  O   -0.468384
     2  N    0.500321
     3  O   -0.504663
     4  C   -0.003069
     5  C    0.186905
     6  N   -0.781822
     7  C    0.060555
     8  H    0.179503
     9  C   -0.301185
    10  C   -0.327885
    11  C   -0.321319
    12  C   -0.306508
    13  C   -0.036781
    14  H    0.189647
    15  N   -0.510891
    16  C    0.126122
    17  H    0.290944
    18  H    0.404165
    19  H    0.189878
    20  H    0.161166
    21  H    0.174367
    22  H    0.149184
    23  H    0.199797
    24  H    0.164295
    25  H    0.186837
    26  H    0.150236
    27  H    0.248584
 Sum of Mulliken charges =  -0.00000

 Dipole moment (field-independent basis, Debye):
    X=              5.2584    Y=              4.8190    Z=              1.2389  Tot=              7.2393
 Quadrupole moment (field-independent basis, Debye-Ang):
   XX=           -105.4389   YY=            -79.3683   ZZ=            -81.4737
   XY=             -1.9523   XZ=              0.0800   YZ=              1.9178

 Normal termination of Gaussian 16 at Fri Jun 30 21:19:35 2023.
