 Gaussian 16, Revision C.02,
 Gaussian 16:  ES64L-G16RevC.02  7-Dec-2021

 ---------------------------------------------------------
 #MP2/6-31G* SCF=Tight Opt=(ModRedun, MaxCycle=20 ) NoSymm
 ---------------------------------------------------------

 --------
 MolName:
 --------
 Symbolic Z-matrix:
 Charge =  0 Multiplicity = 1

 SCF Done:  E(RHF) =  -661.273176401     A.U. after   16 cycles
 E2 =    -0.2038381743D+01 EUMP2 =    -0.66331155814417D+03
 SCF Done:  E(RHF) =  -661.291438844     A.U. after   15 cycles
 E2 =    -0.2033789619D+01 EUMP2 =    -0.66332522846362D+03
 SCF Done:  E(RHF) =  -661.295348710     A.U. after   14 cycles
 E2 =    -0.2034094003D+01 EUMP2 =    -0.66332944271323D+03
 SCF Done:  E(RHF) =  -661.293782643     A.U. after   15 cycles
 E2 =    -0.2035518473D+01 EUMP2 =    -0.66332930111575D+03
 SCF Done:  E(RHF) =  -661.292194727     A.U. after   15 cycles
 E2 =    -0.2037210180D+01 EUMP2 =    -0.66332940490697D+03
 SCF Done:  E(RHF) =  -661.295549970     A.U. after   12 cycles
 E2 =    -0.2035463778D+01 EUMP2 =    -0.66333101374768D+03
 SCF Done:  E(RHF) =  -661.296237174     A.U. after   15 cycles
 E2 =    -0.2035542455D+01 EUMP2 =    -0.66333177962900D+03
 SCF Done:  E(RHF) =  -661.296828196     A.U. after   12 cycles
 E2 =    -0.2035038289D+01 EUMP2 =    -0.66333186648513D+03
 SCF Done:  E(RHF) =  -661.296932432     A.U. after   11 cycles
 E2 =    -0.2034960368D+01 EUMP2 =    -0.66333189279955D+03
 SCF Done:  E(RHF) =  -661.296814554     A.U. after   11 cycles
 E2 =    -0.2035082150D+01 EUMP2 =    -0.66333189670489D+03
 SCF Done:  E(RHF) =  -661.296792219     A.U. after    9 cycles
 E2 =    -0.2035104666D+01 EUMP2 =    -0.66333189688508D+03
 Optimization completed.
    -- Stationary point found.

                          Input orientation:
 ---------------------------------------------------------------------
 Center     Atomic      Atomic             Coordinates (Angstroms)
 Number     Number       Type             X           Y           Z
 ---------------------------------------------------------------------
      1          8           0       -3.491581   -1.434416   -0.314276
      2          7           0       -3.123959   -0.296826    0.039511
      3          8           0       -3.905351    0.602805    0.404392
      4          6           0       -1.699040   -0.043587    0.050970
      5          6           0       -1.315202    1.250978    0.291210
      6          7           0       -0.068134    1.758191    0.251858
      7          6           0        1.206779    1.033391    0.284811
      8          1           0        1.820727    1.565862    1.027662
      9          6           0        1.974355    1.032144   -1.033015
     10          6           0        3.357172    0.415380   -0.790196
     11          6           0        3.263577   -0.976035   -0.157192
     12          6           0        2.399622   -0.972540    1.106787
     13          6           0        1.010686   -0.400005    0.799553
     14          1           0        0.393238   -0.358200    1.712357
     15          7           0        0.396411   -1.288322   -0.184169
     16          6           0       -0.831635   -1.059363   -0.519717
     17          1           0       -2.100799    1.970358    0.508730
     18          1           0       -0.007638    2.747751    0.462789
     19          1           0        1.414233    0.455646   -1.776083
     20          1           0        2.069082    2.057618   -1.411520
     21          1           0        3.912139    0.365396   -1.733926
     22          1           0        3.928291    1.081170   -0.127555
     23          1           0        2.818874   -1.673194   -0.873969
     24          1           0        4.268786   -1.346078    0.077055
     25          1           0        2.282653   -1.992140    1.489035
     26          1           0        2.877234   -0.379356    1.898919
     27          1           0       -1.288519   -1.753638   -1.225012
 ---------------------------------------------------------------------

 Alpha  occ. eigenvalues --  -20.59233 -20.58908 -15.84743 -15.63950 -15.56453
 Alpha  occ. eigenvalues --  -11.35079 -11.29741 -11.29576 -11.28508 -11.27098
 Alpha  occ. eigenvalues --  -11.23704 -11.23226 -11.22735 -11.22123  -1.57112
 Alpha  occ. eigenvalues --   -1.36723  -1.30761  -1.23290  -1.14740  -1.09846
 Alpha  occ. eigenvalues --   -1.02772  -1.01340  -0.94379  -0.89674  -0.85615
 Alpha  occ. eigenvalues --   -0.82333  -0.78399  -0.77462  -0.75027  -0.71891
 Alpha  occ. eigenvalues --   -0.69798  -0.69546  -0.67854  -0.65033  -0.63708
 Alpha  occ. eigenvalues --   -0.62386  -0.60270  -0.57509  -0.57077  -0.54998
 Alpha  occ. eigenvalues --   -0.54642  -0.50841  -0.49879  -0.48627  -0.48015
 Alpha  occ. eigenvalues --   -0.47382  -0.46258  -0.46046  -0.43656  -0.41648
 Alpha  occ. eigenvalues --   -0.40325  -0.34024
 Alpha virt. eigenvalues --    0.07362   0.11994   0.17509   0.21688   0.23545
 Alpha virt. eigenvalues --    0.25107   0.27120   0.28298   0.29021   0.29590
 Alpha virt. eigenvalues --    0.30653   0.31868   0.32026   0.32682   0.33960

 Mulliken charges:
               1
     1  O   -0.467934
     2  N    0.482878
     3  O   -0.500409
     4  C    0.014687
     5  C    0.186587
     6  N   -0.777684
     7  C    0.066228
     8  H    0.180324
     9  C   -0.300554
    10  C   -0.329563
    11  C   -0.320183
    12  C   -0.307084
    13  C   -0.047493
    14  H    0.189936
    15  N   -0.492826
    16  C    0.107692
    17  H    0.289411
    18  H    0.401744
    19  H    0.191141
    20  H    0.161461
    21  H    0.174877
    22  H    0.149455
    23  H    0.199247
    24  H    0.164492
    25  H    0.186486
    26  H    0.150727
    27  H    0.246357
 Sum of Mulliken charges =  -0.00000

 Dipole moment (field-independent basis, Debye):
    X=              5.4063    Y=              4.9015    Z=              0.8461  Tot=              7.3464
 Quadrupole moment (field-independent basis, Debye-Ang):
   XX=           -106.0177   YY=            -79.2520   ZZ=            -81.7517
   XY=             -2.6298   XZ=              1.7925   YZ=              1.3019

 Normal termination of Gaussian 16 at Sun Jul  2 08:44:15 2023.
