 Gaussian 16, Revision C.02,
 Gaussian 16:  ES64L-G16RevC.02  7-Dec-2021

 ---------------------------------------------------------
 #MP2/6-31G* SCF=Tight Opt=(ModRedun, MaxCycle=20 ) NoSymm
 ---------------------------------------------------------

 --------
 MolName:
 --------
 Symbolic Z-matrix:
 Charge =  0 Multiplicity = 1

 SCF Done:  E(RHF) =  -661.278344758     A.U. after   16 cycles
 E2 =    -0.2037623683D+01 EUMP2 =    -0.66331596844184D+03
 SCF Done:  E(RHF) =  -661.296032566     A.U. after   15 cycles
 E2 =    -0.2033005339D+01 EUMP2 =    -0.66332903790540D+03
 SCF Done:  E(RHF) =  -661.298692560     A.U. after   14 cycles
 E2 =    -0.2033470067D+01 EUMP2 =    -0.66333216262710D+03
 SCF Done:  E(RHF) =  -661.288198847     A.U. after   17 cycles
 E2 =    -0.2036682236D+01 EUMP2 =    -0.66332488108328D+03
 SCF Done:  E(RHF) =  -661.298102093     A.U. after   15 cycles
 E2 =    -0.2035492134D+01 EUMP2 =    -0.66333359422651D+03
 SCF Done:  E(RHF) =  -661.298938068     A.U. after   12 cycles
 E2 =    -0.2034984322D+01 EUMP2 =    -0.66333392238973D+03
 SCF Done:  E(RHF) =  -661.299669160     A.U. after   12 cycles
 E2 =    -0.2034318661D+01 EUMP2 =    -0.66333398782155D+03
 SCF Done:  E(RHF) =  -661.299700890     A.U. after   11 cycles
 E2 =    -0.2034301811D+01 EUMP2 =    -0.66333400270128D+03
 SCF Done:  E(RHF) =  -661.299585067     A.U. after   10 cycles
 E2 =    -0.2034419828D+01 EUMP2 =    -0.66333400489523D+03
 SCF Done:  E(RHF) =  -661.299521717     A.U. after    9 cycles
 E2 =    -0.2034483450D+01 EUMP2 =    -0.66333400516693D+03
 Optimization completed.
    -- Stationary point found.

                          Input orientation:
 ---------------------------------------------------------------------
 Center     Atomic      Atomic             Coordinates (Angstroms)
 Number     Number       Type             X           Y           Z
 ---------------------------------------------------------------------
      1          8           0       -3.500371   -1.412089   -0.342837
      2          7           0       -3.125211   -0.262502   -0.039690
      3          8           0       -3.906262    0.670124    0.231251
      4          6           0       -1.693951   -0.033008    0.019834
      5          6           0       -1.308509    1.256214    0.282310
      6          7           0       -0.061675    1.755634    0.319855
      7          6           0        1.205840    1.028709    0.322669
      8          1           0        1.837252    1.558238    1.052515
      9          6           0        1.942457    1.034493   -1.014298
     10          6           0        3.333555    0.422627   -0.810904
     11          6           0        3.262713   -0.971639   -0.181892
     12          6           0        2.432624   -0.976161    1.104053
     13          6           0        1.032780   -0.413288    0.831938
     14          1           0        0.435157   -0.382101    1.757688
     15          7           0        0.402382   -1.303865   -0.138218
     16          6           0       -0.835659   -1.102264   -0.455139
     17          1           0       -2.100153    1.978657    0.462817
     18          1           0       -0.001941    2.742513    0.542090
     19          1           0        1.365370    0.458079   -1.744799
     20          1           0        2.022895    2.061471   -1.391921
     21          1           0        3.863501    0.379386   -1.769274
     22          1           0        3.918969    1.088165   -0.160587
     23          1           0        2.801524   -1.668048   -0.889015
     24          1           0        4.275250   -1.338597    0.023896
     25          1           0        2.331449   -1.997197    1.486694
     26          1           0        2.926197   -0.381038    1.884830
     27          1           0       -1.294166   -1.828532   -1.125857
 ---------------------------------------------------------------------

 Alpha  occ. eigenvalues --  -20.59229 -20.58900 -15.84725 -15.64059 -15.56268
 Alpha  occ. eigenvalues --  -11.35039 -11.29680 -11.29563 -11.28564 -11.27126
 Alpha  occ. eigenvalues --  -11.23714 -11.23215 -11.22717 -11.22105  -1.57107
 Alpha  occ. eigenvalues --   -1.36708  -1.30888  -1.23179  -1.14721  -1.09832
 Alpha  occ. eigenvalues --   -1.02795  -1.01326  -0.94434  -0.89680  -0.85590
 Alpha  occ. eigenvalues --   -0.82397  -0.78515  -0.77436  -0.75141  -0.71966
 Alpha  occ. eigenvalues --   -0.69774  -0.69490  -0.67832  -0.64969  -0.63740
 Alpha  occ. eigenvalues --   -0.62385  -0.60284  -0.57613  -0.57049  -0.55038
 Alpha  occ. eigenvalues --   -0.54615  -0.50813  -0.49995  -0.48632  -0.48064
 Alpha  occ. eigenvalues --   -0.47371  -0.46192  -0.46056  -0.43664  -0.41643
 Alpha  occ. eigenvalues --   -0.40108  -0.33925
 Alpha virt. eigenvalues --    0.07434   0.11929   0.17391   0.21782   0.23890
 Alpha virt. eigenvalues --    0.25380   0.27135   0.28515   0.29020   0.29638
 Alpha virt. eigenvalues --    0.30689   0.31795   0.32028   0.32727   0.33962

 Mulliken charges:
               1
     1  O   -0.467498
     2  N    0.487372
     3  O   -0.502584
     4  C    0.006477
     5  C    0.187948
     6  N   -0.779414
     7  C    0.063490
     8  H    0.180096
     9  C   -0.300938
    10  C   -0.328706
    11  C   -0.320843
    12  C   -0.306939
    13  C   -0.041444
    14  H    0.189597
    15  N   -0.503024
    16  C    0.114608
    17  H    0.292696
    18  H    0.403592
    19  H    0.190501
    20  H    0.161395
    21  H    0.174731
    22  H    0.149381
    23  H    0.199629
    24  H    0.164512
    25  H    0.186831
    26  H    0.150580
    27  H    0.247957
 Sum of Mulliken charges =  -0.00000

 Dipole moment (field-independent basis, Debye):
    X=              5.4198    Y=              4.8463    Z=              1.0614  Tot=              7.3476
 Quadrupole moment (field-independent basis, Debye-Ang):
   XX=           -106.1585   YY=            -79.2280   ZZ=            -81.5768
   XY=             -2.1710   XZ=              0.8546   YZ=              1.5747

 Normal termination of Gaussian 16 at Sun Jul  2 08:19:08 2023.
