 Gaussian 16, Revision C.02,
 Gaussian 16:  ES64L-G16RevC.02  7-Dec-2021

 ---------------------------------------------------------
 #MP2/6-31G* SCF=Tight Opt=(ModRedun, MaxCycle=20 ) NoSymm
 ---------------------------------------------------------

 --------
 MolName:
 --------
 Symbolic Z-matrix:
 Charge =  0 Multiplicity = 1

 SCF Done:  E(RHF) =  -661.281275556     A.U. after   16 cycles
 E2 =    -0.2037247718D+01 EUMP2 =    -0.66331852327404D+03
 SCF Done:  E(RHF) =  -661.298474966     A.U. after   15 cycles
 E2 =    -0.2032675205D+01 EUMP2 =    -0.66333115017085D+03
 SCF Done:  E(RHF) =  -661.299611693     A.U. after   15 cycles
 E2 =    -0.2033374662D+01 EUMP2 =    -0.66333298635498D+03
 SCF Done:  E(RHF) =  -661.288164527     A.U. after   17 cycles
 E2 =    -0.2036698999D+01 EUMP2 =    -0.66332486352634D+03
 SCF Done:  E(RHF) =  -661.299374754     A.U. after   14 cycles
 E2 =    -0.2034992216D+01 EUMP2 =    -0.66333436697017D+03
 SCF Done:  E(RHF) =  -661.299931310     A.U. after   12 cycles
 E2 =    -0.2034638874D+01 EUMP2 =    -0.66333457018398D+03
 SCF Done:  E(RHF) =  -661.300459438     A.U. after   12 cycles
 E2 =    -0.2034176142D+01 EUMP2 =    -0.66333463558082D+03
 SCF Done:  E(RHF) =  -661.300468328     A.U. after   11 cycles
 E2 =    -0.2034179588D+01 EUMP2 =    -0.66333464791597D+03
 SCF Done:  E(RHF) =  -661.300385303     A.U. after   10 cycles
 E2 =    -0.2034264052D+01 EUMP2 =    -0.66333464935576D+03
 Optimization completed.
    -- Stationary point found.

                          Input orientation:
 ---------------------------------------------------------------------
 Center     Atomic      Atomic             Coordinates (Angstroms)
 Number     Number       Type             X           Y           Z
 ---------------------------------------------------------------------
      1          8           0       -3.506591   -1.390422   -0.371380
      2          7           0       -3.121082   -0.232388   -0.118651
      3          8           0       -3.895459    0.728526    0.055300
      4          6           0       -1.686612   -0.023780   -0.009636
      5          6           0       -1.301427    1.260729    0.275265
      6          7           0       -0.057203    1.750153    0.386483
      7          6           0        1.205696    1.023989    0.359450
      8          1           0        1.853493    1.553071    1.074687
      9          6           0        1.908960    1.035051   -0.996494
     10          6           0        3.307332    0.428354   -0.832570
     11          6           0        3.259391   -0.967747   -0.205934
     12          6           0        2.464558   -0.978271    1.101621
     13          6           0        1.054874   -0.424622    0.865259
     14          1           0        0.478405   -0.403318    1.803721
     15          7           0        0.408389   -1.317812   -0.090984
     16          6           0       -0.838900   -1.137990   -0.386382
     17          1           0       -2.096180    1.987621    0.418931
     18          1           0        0.001868    2.735236    0.615968
     19          1           0        1.314672    0.457602   -1.712619
     20          1           0        1.974926    2.062990   -1.374191
     21          1           0        3.811125    0.390219   -1.805171
     22          1           0        3.907225    1.094653   -0.196419
     23          1           0        2.781602   -1.664540   -0.901688
     24          1           0        4.278563   -1.331270   -0.028904
     25          1           0        2.379204   -2.000145    1.485601
     26          1           0        2.974517   -0.380277    1.869527
     27          1           0       -1.300340   -1.892642   -1.022789
 ---------------------------------------------------------------------

 Alpha  occ. eigenvalues --  -20.59237 -20.58903 -15.84722 -15.64135 -15.56110
 Alpha  occ. eigenvalues --  -11.35017 -11.29623 -11.29558 -11.28626 -11.27133
 Alpha  occ. eigenvalues --  -11.23728 -11.23207 -11.22691 -11.22088  -1.57123
 Alpha  occ. eigenvalues --   -1.36714  -1.30977  -1.23068  -1.14702  -1.09818
 Alpha  occ. eigenvalues --   -1.02806  -1.01307  -0.94481  -0.89685  -0.85565
 Alpha  occ. eigenvalues --   -0.82448  -0.78610  -0.77412  -0.75201  -0.72020
 Alpha  occ. eigenvalues --   -0.69773  -0.69440  -0.67821  -0.64893  -0.63780
 Alpha  occ. eigenvalues --   -0.62367  -0.60280  -0.57700  -0.57001  -0.55077
 Alpha  occ. eigenvalues --   -0.54582  -0.50761  -0.50110  -0.48656  -0.48103
 Alpha  occ. eigenvalues --   -0.47372  -0.46146  -0.46044  -0.43678  -0.41695
 Alpha  occ. eigenvalues --   -0.39847  -0.33829
 Alpha virt. eigenvalues --    0.07468   0.11801   0.17307   0.21849   0.24113
 Alpha virt. eigenvalues --    0.25665   0.27134   0.28694   0.29045   0.29636
 Alpha virt. eigenvalues --    0.30683   0.31799   0.32036   0.32767   0.33951

 Mulliken charges:
               1
     1  O   -0.467227
     2  N    0.491378
     3  O   -0.504072
     4  C    0.000405
     5  C    0.188923
     6  N   -0.780288
     7  C    0.060205
     8  H    0.180085
     9  C   -0.301415
    10  C   -0.327950
    11  C   -0.321496
    12  C   -0.306651
    13  C   -0.037155
    14  H    0.189952
    15  N   -0.511195
    16  C    0.120018
    17  H    0.295278
    18  H    0.404866
    19  H    0.190198
    20  H    0.161381
    21  H    0.174644
    22  H    0.149360
    23  H    0.199947
    24  H    0.164540
    25  H    0.187056
    26  H    0.150338
    27  H    0.248876
 Sum of Mulliken charges =  -0.00000

 Dipole moment (field-independent basis, Debye):
    X=              5.4153    Y=              4.7958    Z=              1.2823  Tot=              7.3464
 Quadrupole moment (field-independent basis, Debye-Ang):
   XX=           -106.1381   YY=            -79.2252   ZZ=            -81.5001
   XY=             -1.7650   XZ=             -0.1352   YZ=              1.8575

 Normal termination of Gaussian 16 at Sun Jul  2 07:13:14 2023.
