 Gaussian 16, Revision C.02,
 Gaussian 16:  ES64L-G16RevC.02  7-Dec-2021

 ---------------------------------------------------------
 #MP2/6-31G* SCF=Tight Opt=(ModRedun, MaxCycle=20 ) NoSymm
 ---------------------------------------------------------

 --------
 MolName:
 --------
 Symbolic Z-matrix:
 Charge =  0 Multiplicity = 1

 SCF Done:  E(RHF) =  -661.281889097     A.U. after   16 cycles
 E2 =    -0.2037182582D+01 EUMP2 =    -0.66331907167871D+03
 SCF Done:  E(RHF) =  -661.298770586     A.U. after   14 cycles
 E2 =    -0.2032754861D+01 EUMP2 =    -0.66333152544739D+03
 SCF Done:  E(RHF) =  -661.298294192     A.U. after   15 cycles
 E2 =    -0.2033764048D+01 EUMP2 =    -0.66333205824045D+03
 SCF Done:  E(RHF) =  -661.288099775     A.U. after   17 cycles
 E2 =    -0.2035606169D+01 EUMP2 =    -0.66332370594405D+03
 SCF Done:  E(RHF) =  -661.298983148     A.U. after   14 cycles
 E2 =    -0.2034760512D+01 EUMP2 =    -0.66333374365990D+03
 SCF Done:  E(RHF) =  -661.298991404     A.U. after   13 cycles
 E2 =    -0.2034937908D+01 EUMP2 =    -0.66333392931137D+03
 SCF Done:  E(RHF) =  -661.299496943     A.U. after   12 cycles
 E2 =    -0.2034549666D+01 EUMP2 =    -0.66333404660917D+03
 SCF Done:  E(RHF) =  -661.299612835     A.U. after   11 cycles
 E2 =    -0.2034451510D+01 EUMP2 =    -0.66333406434521D+03
 SCF Done:  E(RHF) =  -661.299628861     A.U. after   11 cycles
 E2 =    -0.2034438093D+01 EUMP2 =    -0.66333406695369D+03
 SCF Done:  E(RHF) =  -661.299602709     A.U. after   10 cycles
 E2 =    -0.2034464736D+01 EUMP2 =    -0.66333406744459D+03
 Optimization completed.
    -- Stationary point found.

                          Input orientation:
 ---------------------------------------------------------------------
 Center     Atomic      Atomic             Coordinates (Angstroms)
 Number     Number       Type             X           Y           Z
 ---------------------------------------------------------------------
      1          8           0       -3.510579   -1.366946   -0.405292
      2          7           0       -3.111104   -0.204193   -0.200931
      3          8           0       -3.871754    0.780225   -0.123900
      4          6           0       -1.676703   -0.014643   -0.041193
      5          6           0       -1.293791    1.265225    0.268079
      6          7           0       -0.054429    1.742459    0.451300
      7          6           0        1.205484    1.018622    0.395859
      8          1           0        1.867507    1.547617    1.097616
      9          6           0        1.876590    1.035217   -0.977038
     10          6           0        3.280831    0.433470   -0.850499
     11          6           0        3.254304   -0.964463   -0.227164
     12          6           0        2.493057   -0.981215    1.099843
     13          6           0        1.075077   -0.435556    0.897897
     14          1           0        0.518856   -0.424379    1.847605
     15          7           0        0.413499   -1.330257   -0.046600
     16          6           0       -0.842102   -1.166043   -0.319273
     17          1           0       -2.088989    1.997691    0.375291
     18          1           0        0.004042    2.726441    0.685189
     19          1           0        1.266310    0.457002   -1.679337
     20          1           0        1.928972    2.064150   -1.354080
     21          1           0        3.759817    0.400382   -1.835775
     22          1           0        3.893939    1.100354   -0.227710
     23          1           0        2.761369   -1.661457   -0.912238
     24          1           0        4.279007   -1.324699   -0.077470
     25          1           0        2.422278   -2.004118    1.483855
     26          1           0        3.018498   -0.381342    1.855754
     27          1           0       -1.307967   -1.945545   -0.921776
 ---------------------------------------------------------------------

 Alpha  occ. eigenvalues --  -20.59254 -20.58919 -15.84728 -15.64184 -15.55982
 Alpha  occ. eigenvalues --  -11.35012 -11.29567 -11.29565 -11.28693 -11.27129
 Alpha  occ. eigenvalues --  -11.23745 -11.23204 -11.22663 -11.22076  -1.57133
 Alpha  occ. eigenvalues --   -1.36722  -1.31035  -1.22954  -1.14687  -1.09808
 Alpha  occ. eigenvalues --   -1.02802  -1.01285  -0.94517  -0.89691  -0.85541
 Alpha  occ. eigenvalues --   -0.82485  -0.78679  -0.77384  -0.75223  -0.72054
 Alpha  occ. eigenvalues --   -0.69782  -0.69393  -0.67815  -0.64807  -0.63816
 Alpha  occ. eigenvalues --   -0.62340  -0.60266  -0.57771  -0.56941  -0.55112
 Alpha  occ. eigenvalues --   -0.54546  -0.50693  -0.50214  -0.48697  -0.48129
 Alpha  occ. eigenvalues --   -0.47382  -0.46145  -0.45991  -0.43694  -0.41778
 Alpha  occ. eigenvalues --   -0.39579  -0.33738
 Alpha virt. eigenvalues --    0.07457   0.11620   0.17250   0.21900   0.24255
 Alpha virt. eigenvalues --    0.25908   0.27098   0.28789   0.29104   0.29558
 Alpha virt. eigenvalues --    0.30690   0.31870   0.32048   0.32798   0.33923

 Mulliken charges:
               1
     1  O   -0.467207
     2  N    0.494248
     3  O   -0.504498
     4  C   -0.002872
     5  C    0.188911
     6  N   -0.779754
     7  C    0.056469
     8  H    0.180163
     9  C   -0.302069
    10  C   -0.327237
    11  C   -0.322133
    12  C   -0.306277
    13  C   -0.034484
    14  H    0.190847
    15  N   -0.517119
    16  C    0.123448
    17  H    0.297071
    18  H    0.405620
    19  H    0.190195
    20  H    0.161380
    21  H    0.174615
    22  H    0.149383
    23  H    0.200154
    24  H    0.164589
    25  H    0.187215
    26  H    0.150086
    27  H    0.249258
 Sum of Mulliken charges =  -0.00000

 Dipole moment (field-independent basis, Debye):
    X=              5.3938    Y=              4.7471    Z=              1.5119  Tot=              7.3426
 Quadrupole moment (field-independent basis, Debye-Ang):
   XX=           -105.9565   YY=            -79.2354   ZZ=            -81.5306
   XY=             -1.4146   XZ=             -1.1614   YZ=              2.1329

 Normal termination of Gaussian 16 at Sun Jul  2 07:34:40 2023.
