 Gaussian 16, Revision C.02,
 Gaussian 16:  ES64L-G16RevC.02  7-Dec-2021

 ---------------------------------------------------------
 #MP2/6-31G* SCF=Tight Opt=(ModRedun, MaxCycle=20 ) NoSymm
 ---------------------------------------------------------

 --------
 MolName:
 --------
 Symbolic Z-matrix:
 Charge =  0 Multiplicity = 1

 SCF Done:  E(RHF) =  -661.280514621     A.U. after   16 cycles
 E2 =    -0.2037336294D+01 EUMP2 =    -0.66331785091511D+03
 SCF Done:  E(RHF) =  -661.297212009     A.U. after   15 cycles
 E2 =    -0.2033152244D+01 EUMP2 =    -0.66333036425311D+03
 SCF Done:  E(RHF) =  -661.294722846     A.U. after   15 cycles
 E2 =    -0.2034632762D+01 EUMP2 =    -0.66332935560834D+03
 SCF Done:  E(RHF) =  -661.286734310     A.U. after   16 cycles
 E2 =    -0.2037242606D+01 EUMP2 =    -0.66332397691642D+03
 SCF Done:  E(RHF) =  -661.285568464     A.U. after   15 cycles
 E2 =    -0.2037190307D+01 EUMP2 =    -0.66332275877055D+03
 SCF Done:  E(RHF) =  -661.297209240     A.U. after   11 cycles
 E2 =    -0.2033722488D+01 EUMP2 =    -0.66333093172754D+03
 SCF Done:  E(RHF) =  -661.296949532     A.U. after   14 cycles
 E2 =    -0.2035182750D+01 EUMP2 =    -0.66333213228174D+03
 SCF Done:  E(RHF) =  -661.297126762     A.U. after   13 cycles
 E2 =    -0.2035185130D+01 EUMP2 =    -0.66333231189120D+03
 SCF Done:  E(RHF) =  -661.297412899     A.U. after   12 cycles
 E2 =    -0.2034979277D+01 EUMP2 =    -0.66333239217597D+03
 SCF Done:  E(RHF) =  -661.297399126     A.U. after   11 cycles
 E2 =    -0.2035005300D+01 EUMP2 =    -0.66333240442666D+03
 SCF Done:  E(RHF) =  -661.297410476     A.U. after   10 cycles
 E2 =    -0.2034995840D+01 EUMP2 =    -0.66333240631629D+03
 Optimization completed.
    -- Stationary point found.

                          Input orientation:
 ---------------------------------------------------------------------
 Center     Atomic      Atomic             Coordinates (Angstroms)
 Number     Number       Type             X           Y           Z
 ---------------------------------------------------------------------
      1          8           0       -3.512113   -1.342794   -0.441996
      2          7           0       -3.095724   -0.179076   -0.283077
      3          8           0       -3.836145    0.823576   -0.300505
      4          6           0       -1.664263   -0.006321   -0.072196
      5          6           0       -1.285948    1.269329    0.261975
      6          7           0       -0.053743    1.732342    0.515372
      7          6           0        1.204806    1.012379    0.431914
      8          1           0        1.879723    1.542087    1.120391
      9          6           0        1.843485    1.035156   -0.956755
     10          6           0        3.252653    0.438670   -0.866975
     11          6           0        3.247442   -0.961207   -0.247830
     12          6           0        2.519485   -0.984797    1.097368
     13          6           0        1.094416   -0.446715    0.929766
     14          1           0        0.558129   -0.446521    1.889785
     15          7           0        0.418390   -1.341313   -0.004993
     16          6           0       -0.844890   -1.187303   -0.252884
     17          1           0       -2.079264    2.008025    0.334315
     18          1           0        0.004961    2.715452    0.752911
     19          1           0        1.218050    0.456317   -1.645420
     20          1           0        1.882479    2.065265   -1.332212
     21          1           0        3.707097    0.410897   -1.864028
     22          1           0        3.878159    1.106190   -0.257321
     23          1           0        2.740286   -1.658454   -0.922425
     24          1           0        4.276991   -1.317822   -0.125080
     25          1           0        2.463078   -2.008925    1.480411
     26          1           0        3.059817   -0.383444    1.841533
     27          1           0       -1.317337   -1.988013   -0.822044
 ---------------------------------------------------------------------

 Alpha  occ. eigenvalues --  -20.59283 -20.58947 -15.84744 -15.64205 -15.55878
 Alpha  occ. eigenvalues --  -11.35022 -11.29585 -11.29512 -11.28763 -11.27114
 Alpha  occ. eigenvalues --  -11.23759 -11.23202 -11.22635 -11.22067  -1.57157
 Alpha  occ. eigenvalues --   -1.36747  -1.31063  -1.22849  -1.14671  -1.09796
 Alpha  occ. eigenvalues --   -1.02787  -1.01257  -0.94540  -0.89698  -0.85512
 Alpha  occ. eigenvalues --   -0.82507  -0.78724  -0.77352  -0.75210  -0.72072
 Alpha  occ. eigenvalues --   -0.69803  -0.69357  -0.67816  -0.64714  -0.63851
 Alpha  occ. eigenvalues --   -0.62305  -0.60237  -0.57827  -0.56874  -0.55145
 Alpha  occ. eigenvalues --   -0.54504  -0.50621  -0.50299  -0.48753  -0.48147
 Alpha  occ. eigenvalues --   -0.47401  -0.46170  -0.45913  -0.43713  -0.41877
 Alpha  occ. eigenvalues --   -0.39316  -0.33650
 Alpha virt. eigenvalues --    0.07414   0.11399   0.17213   0.21944   0.24352
 Alpha virt. eigenvalues --    0.26073   0.26998   0.28795   0.29177   0.29423
 Alpha virt. eigenvalues --    0.30746   0.31987   0.32063   0.32822   0.33884

 Mulliken charges:
               1
     1  O   -0.467279
     2  N    0.495904
     3  O   -0.503671
     4  C   -0.003183
     5  C    0.187577
     6  N   -0.777479
     7  C    0.051954
     8  H    0.180276
     9  C   -0.302893
    10  C   -0.326578
    11  C   -0.322781
    12  C   -0.305855
    13  C   -0.032895
    14  H    0.192109
    15  N   -0.520529
    16  C    0.124557
    17  H    0.297811
    18  H    0.405911
    19  H    0.190539
    20  H    0.161368
    21  H    0.174616
    22  H    0.149419
    23  H    0.200280
    24  H    0.164657
    25  H    0.187307
    26  H    0.149820
    27  H    0.249038
 Sum of Mulliken charges =  -0.00000

 Dipole moment (field-independent basis, Debye):
    X=              5.3526    Y=              4.7003    Z=              1.7438  Tot=              7.3338
 Quadrupole moment (field-independent basis, Debye-Ang):
   XX=           -105.6180   YY=            -79.2612   ZZ=            -81.6625
   XY=             -1.1285   XZ=             -2.1704   YZ=              2.4017

 Normal termination of Gaussian 16 at Sun Jul  2 07:58:10 2023.
