 Gaussian 16, Revision C.02,
 Gaussian 16:  ES64L-G16RevC.02  7-Dec-2021

 ---------------------------------------------------------
 #MP2/6-31G* SCF=Tight Opt=(ModRedun, MaxCycle=20 ) NoSymm
 ---------------------------------------------------------

 --------
 MolName:
 --------
 Symbolic Z-matrix:
 Charge =  0 Multiplicity = 1

 SCF Done:  E(RHF) =  -661.257191826     A.U. after   16 cycles
 E2 =    -0.2041154414D+01 EUMP2 =    -0.66329834623979D+03
 SCF Done:  E(RHF) =  -661.276502311     A.U. after   15 cycles
 E2 =    -0.2036726526D+01 EUMP2 =    -0.66331322883650D+03
 SCF Done:  E(RHF) =  -661.279621995     A.U. after   15 cycles
 E2 =    -0.2037190959D+01 EUMP2 =    -0.66331681295362D+03
 SCF Done:  E(RHF) =  -661.276749910     A.U. after   16 cycles
 E2 =    -0.2039094586D+01 EUMP2 =    -0.66331584449609D+03
 SCF Done:  E(RHF) =  -661.282939232     A.U. after   15 cycles
 E2 =    -0.2038639608D+01 EUMP2 =    -0.66332157883935D+03
 SCF Done:  E(RHF) =  -661.284310810     A.U. after   14 cycles
 E2 =    -0.2037842757D+01 EUMP2 =    -0.66332215356774D+03
 SCF Done:  E(RHF) =  -661.284481176     A.U. after   12 cycles
 E2 =    -0.2037770921D+01 EUMP2 =    -0.66332225209645D+03
 SCF Done:  E(RHF) =  -661.284456614     A.U. after   11 cycles
 E2 =    -0.2037815684D+01 EUMP2 =    -0.66332227229795D+03
 SCF Done:  E(RHF) =  -661.284435379     A.U. after   11 cycles
 E2 =    -0.2037839235D+01 EUMP2 =    -0.66332227461360D+03
 SCF Done:  E(RHF) =  -661.284416744     A.U. after   10 cycles
 E2 =    -0.2037858340D+01 EUMP2 =    -0.66332227508441D+03
 Optimization completed.
    -- Stationary point found.

                          Input orientation:
 ---------------------------------------------------------------------
 Center     Atomic      Atomic             Coordinates (Angstroms)
 Number     Number       Type             X           Y           Z
 ---------------------------------------------------------------------
      1          8           0       -3.470133   -1.479336   -0.267781
      2          7           0       -3.110013   -0.375808    0.187555
      3          8           0       -3.877513    0.447095    0.722836
      4          6           0       -1.706036   -0.068820    0.116011
      5          6           0       -1.327541    1.235826    0.322735
      6          7           0       -0.086527    1.751660    0.129712
      7          6           0        1.213314    1.041601    0.214438
      8          1           0        1.791786    1.583550    0.978904
      9          6           0        2.030096    1.027853   -1.068851
     10          6           0        3.395122    0.401354   -0.756425
     11          6           0        3.259280   -0.984267   -0.116812
     12          6           0        2.336911   -0.965244    1.106437
     13          6           0        0.970464   -0.370597    0.739597
     14          1           0        0.322591   -0.309832    1.629707
     15          7           0        0.384137   -1.252805   -0.271369
     16          6           0       -0.822494   -0.952343   -0.629531
     17          1           0       -2.091369    1.953632    0.615143
     18          1           0       -0.027382    2.747507    0.313079
     19          1           0        1.499297    0.451103   -1.831930
     20          1           0        2.150896    2.050371   -1.448025
     21          1           0        3.993007    0.337804   -1.672645
     22          1           0        3.941242    1.067625   -0.073583
     23          1           0        2.844034   -1.682884   -0.849523
     24          1           0        4.249318   -1.360261    0.167268
     25          1           0        2.190009   -1.982205    1.486004
     26          1           0        2.788049   -0.377565    1.918089
     27          1           0       -1.279522   -1.572024   -1.403031
 ---------------------------------------------------------------------

 Alpha  occ. eigenvalues --  -20.59290 -20.58979 -15.84846 -15.63633 -15.56879
 Alpha  occ. eigenvalues --  -11.35216 -11.29878 -11.29622 -11.28454 -11.26982
 Alpha  occ. eigenvalues --  -11.23714 -11.23266 -11.22742 -11.22159  -1.57168
 Alpha  occ. eigenvalues --   -1.36803  -1.30384  -1.23428  -1.14800  -1.09880
 Alpha  occ. eigenvalues --   -1.02686  -1.01365  -0.94281  -0.89658  -0.85667
 Alpha  occ. eigenvalues --   -0.82184  -0.78143  -0.77520  -0.74623  -0.71655
 Alpha  occ. eigenvalues --   -0.69922  -0.69661  -0.67937  -0.65104  -0.63653
 Alpha  occ. eigenvalues --   -0.62308  -0.60179  -0.57331  -0.56988  -0.54946
 Alpha  occ. eigenvalues --   -0.54620  -0.50824  -0.49673  -0.48669  -0.47888
 Alpha  occ. eigenvalues --   -0.47454  -0.46396  -0.45997  -0.43667  -0.41963
 Alpha  occ. eigenvalues --   -0.40417  -0.34243
 Alpha virt. eigenvalues --    0.07074   0.11886   0.17850   0.21272   0.22666
 Alpha virt. eigenvalues --    0.24723   0.27055   0.27917   0.29055   0.29382
 Alpha virt. eigenvalues --    0.30463   0.31997   0.32141   0.32589   0.33916

 Mulliken charges:
               1
     1  O   -0.468761
     2  N    0.473863
     3  O   -0.495360
     4  C    0.035633
     5  C    0.183166
     6  N   -0.774684
     7  C    0.070434
     8  H    0.181626
     9  C   -0.300090
    10  C   -0.331561
    11  C   -0.318793
    12  C   -0.307146
    13  C   -0.063740
    14  H    0.193008
    15  N   -0.468826
    16  C    0.092279
    17  H    0.281630
    18  H    0.396631
    19  H    0.193359
    20  H    0.162048
    21  H    0.175397
    22  H    0.149796
    23  H    0.198244
    24  H    0.164471
    25  H    0.185416
    26  H    0.150574
    27  H    0.241384
 Sum of Mulliken charges =  -0.00000

 Dipole moment (field-independent basis, Debye):
    X=              5.3416    Y=              5.0158    Z=              0.5016  Tot=              7.3446
 Quadrupole moment (field-independent basis, Debye-Ang):
   XX=           -105.3353   YY=            -79.4129   ZZ=            -82.3112
   XY=             -3.6302   XZ=              3.2942   YZ=              0.8504

 Normal termination of Gaussian 16 at Sat Jul  1 01:34:47 2023.
