 Gaussian 09, Revision A.01,
 Gaussian 09:  EM64L-G09RevA.01  8-May-2009

 ------------------------------
 #HF/6-31G* Opt=Z-matrix NoSymm
 ------------------------------

 -------------------------------
 water interaction with atom S12
 -------------------------------
 Symbolic Z-matrix:
 Charge =  0 Multiplicity = 1

 SCF Done:  E(RHF) =  -1154.67435474     A.U. after   15 cycles
 SCF Done:  E(RHF) =  -1154.67435500     A.U. after    5 cycles
 SCF Done:  E(RHF) =  -1154.67435545     A.U. after    6 cycles
 SCF Done:  E(RHF) =  -1154.67435608     A.U. after    7 cycles
 SCF Done:  E(RHF) =  -1154.67435638     A.U. after    7 cycles
 Optimization completed.
    -- Stationary point found.

                         Z-Matrix orientation:
 ---------------------------------------------------------------------
 Center     Atomic      Atomic             Coordinates (Angstroms)
 Number     Number       Type             X           Y           Z
 ---------------------------------------------------------------------
      1          9           0       -1.969300    2.053680    0.000070
      2          6           0       -1.222250    0.944230    0.000030
      3          6           0        0.140030    1.057400   -0.000020
      4          6           0        0.927950   -0.123640   -0.000080
      5          6           0        2.414660   -0.018650   -0.000010
      6          9           0        3.007080   -1.234610   -0.000560
      7          9           0        2.858290    0.654480   -1.086020
      8          9           0        2.858270    0.653500    1.086650
      9          6           0        0.306540   -1.341490   -0.000090
     10          7           0       -1.054170   -1.389970   -0.000060
     11          6           0       -1.930500   -0.312100    0.000000
     12         16           0       -3.570980   -0.506610    0.000030
     13          1           0        0.596860    2.043100   -0.000020
     14          1           0        0.831760   -2.288990   -0.000150
     15          1           0       -1.521480   -2.296390   -0.000090
     16         -1           0       -3.688724    0.486434    0.000069
     17         -1           0       -2.695680    0.604178    0.000051
     18          1           0       -6.631015   -0.869435    0.000086
     19         -1           0       -6.748759    0.123609    0.000125
     20          8           0       -7.581557   -0.982140    0.000103
     21          1           0       -7.710770   -1.930579    0.000072
 ---------------------------------------------------------------------

 Alpha  occ. eigenvalues --  -91.91111 -26.37065 -26.36112 -26.36110 -26.33783
 Alpha  occ. eigenvalues --  -20.54319 -15.69314 -11.54438 -11.38521 -11.37612
 Alpha  occ. eigenvalues --  -11.36545 -11.31683 -11.30768  -8.92226  -6.60566
 Alpha  occ. eigenvalues --   -6.60285  -6.60165  -1.74299  -1.65305  -1.65032
 Alpha  occ. eigenvalues --   -1.64604  -1.36075  -1.32479  -1.17544  -1.12559
 Alpha  occ. eigenvalues --   -1.03403  -0.97591  -0.92998  -0.88773  -0.85166
 Alpha  occ. eigenvalues --   -0.83935  -0.83531  -0.77386  -0.76237  -0.74222
 Alpha  occ. eigenvalues --   -0.72472  -0.71837  -0.71637  -0.70673  -0.68996
 Alpha  occ. eigenvalues --   -0.67716  -0.67714  -0.66286  -0.64346  -0.62993
 Alpha  occ. eigenvalues --   -0.61147  -0.59768  -0.55497  -0.53336  -0.48107
 Alpha  occ. eigenvalues --   -0.46962  -0.43760  -0.34844  -0.31602
 Alpha virt. eigenvalues --    0.03961   0.08306   0.16763   0.20061   0.24168
 Alpha virt. eigenvalues --    0.25329   0.26140   0.27039   0.29705   0.33352
 Alpha virt. eigenvalues --    0.34271   0.36905   0.39634   0.40428   0.42512

 Mulliken atomic charges:
              1
     1  F   -0.358626
     2  C    0.404033
     3  C   -0.170255
     4  C   -0.299793
     5  C    1.208511
     6  F   -0.383198
     7  F   -0.372527
     8  F   -0.372531
     9  C    0.172454
    10  N   -0.778567
    11  C    0.181896
    12  S   -0.247059
    13  H    0.283291
    14  H    0.289607
    15  H    0.441947
    16  H    0.453496
    17  O   -0.880769
    18  H    0.428093
 Sum of Mulliken atomic charges =   0.00000

 Dipole moment (field-independent basis, Debye):
    X=              5.6105    Y=             -4.0851    Z=             -0.0005  Tot=              6.9401
 Quadrupole moment (field-independent basis, Debye-Ang):
   XX=           -129.9617   YY=            -66.3456   ZZ=            -82.5234
   XY=             12.5068   XZ=              0.0007   YZ=              0.0004

 Normal termination of Gaussian 09 at Fri Sep 24 08:22:40 2021.
