 Gaussian 09, Revision A.01,
 Gaussian 09:  EM64L-G09RevA.01  8-May-2009

 ------------------------------
 #HF/6-31G* Opt=Z-matrix NoSymm
 ------------------------------

 -------------------------------
 water interaction with atom S12
 -------------------------------
 Symbolic Z-matrix:
 Charge =  0 Multiplicity = 1

 SCF Done:  E(RHF) =  -1154.67506344     A.U. after   15 cycles
 SCF Done:  E(RHF) =  -1154.67507322     A.U. after    7 cycles
 SCF Done:  E(RHF) =  -1154.67509125     A.U. after    9 cycles
 SCF Done:  E(RHF) =  -1154.67511981     A.U. after   10 cycles
 SCF Done:  E(RHF) =  -1154.67513712     A.U. after   10 cycles
 SCF Done:  E(RHF) =  -1154.67513712     A.U. after    4 cycles
 Optimization completed.
    -- Stationary point found.

                         Z-Matrix orientation:
 ---------------------------------------------------------------------
 Center     Atomic      Atomic             Coordinates (Angstroms)
 Number     Number       Type             X           Y           Z
 ---------------------------------------------------------------------
      1          9           0       -1.969300    2.053680    0.000070
      2          6           0       -1.222250    0.944230    0.000030
      3          6           0        0.140030    1.057400   -0.000020
      4          6           0        0.927950   -0.123640   -0.000080
      5          6           0        2.414660   -0.018650   -0.000010
      6          9           0        3.007080   -1.234610   -0.000560
      7          9           0        2.858290    0.654480   -1.086020
      8          9           0        2.858270    0.653500    1.086650
      9          6           0        0.306540   -1.341490   -0.000090
     10          7           0       -1.054170   -1.389970   -0.000060
     11          6           0       -1.930500   -0.312100    0.000000
     12         16           0       -3.570980   -0.506610    0.000030
     13          1           0        0.596860    2.043100   -0.000020
     14          1           0        0.831760   -2.288990   -0.000150
     15          1           0       -1.521480   -2.296390   -0.000090
     16         -1           0       -3.688724    0.486434    0.000069
     17         -1           0       -2.695680    0.604178    0.000051
     18          1           0       -6.556513   -0.860602    0.000085
     19         -1           0       -6.674257    0.132442    0.000124
     20          8           0       -7.507055   -0.973306    0.000102
     21          1           0       -7.854478   -0.081382    0.000143
 ---------------------------------------------------------------------

 Alpha  occ. eigenvalues --  -91.91126 -26.37060 -26.36123 -26.36121 -26.33920
 Alpha  occ. eigenvalues --  -20.54206 -15.69303 -11.54445 -11.38548 -11.37656
 Alpha  occ. eigenvalues --  -11.36554 -11.31740 -11.30774  -8.92245  -6.60585
 Alpha  occ. eigenvalues --   -6.60304  -6.60185  -1.74304  -1.65306  -1.65178
 Alpha  occ. eigenvalues --   -1.64616  -1.36067  -1.32368  -1.17563  -1.12588
 Alpha  occ. eigenvalues --   -1.03425  -0.97604  -0.93024  -0.88794  -0.85201
 Alpha  occ. eigenvalues --   -0.83943  -0.83539  -0.77422  -0.76280  -0.74273
 Alpha  occ. eigenvalues --   -0.72487  -0.71850  -0.71771  -0.70707  -0.68905
 Alpha  occ. eigenvalues --   -0.67722  -0.67721  -0.66294  -0.64434  -0.62993
 Alpha  occ. eigenvalues --   -0.61174  -0.59800  -0.55439  -0.53352  -0.48011
 Alpha  occ. eigenvalues --   -0.46982  -0.43797  -0.34870  -0.31632
 Alpha virt. eigenvalues --    0.03938   0.08288   0.16874   0.20216   0.24149
 Alpha virt. eigenvalues --    0.25343   0.26106   0.27391   0.29671   0.33293
 Alpha virt. eigenvalues --    0.34248   0.37253   0.39665   0.40419   0.42531

 Mulliken atomic charges:
              1
     1  F   -0.360230
     2  C    0.402081
     3  C   -0.169802
     4  C   -0.300382
     5  C    1.208618
     6  F   -0.382980
     7  F   -0.372625
     8  F   -0.372630
     9  C    0.173423
    10  N   -0.778934
    11  C    0.181575
    12  S   -0.246960
    13  H    0.282804
    14  H    0.290563
    15  H    0.444352
    16  H    0.455741
    17  O   -0.885182
    18  H    0.430567
 Sum of Mulliken atomic charges =   0.00000

 Dipole moment (field-independent basis, Debye):
    X=              5.2371    Y=             -0.7230    Z=             -0.0004  Tot=              5.2867
 Quadrupole moment (field-independent basis, Debye-Ang):
   XX=           -123.4131   YY=            -73.3385   ZZ=            -82.5213
   XY=            -14.2917   XZ=             -0.0004   YZ=              0.0006

 Normal termination of Gaussian 09 at Fri Sep 24 08:20:41 2021.
