 Gaussian 09, Revision A.01,
 Gaussian 09:  EM64L-G09RevA.01  8-May-2009

 ------------------------------
 #HF/6-31G* Opt=Z-matrix NoSymm
 ------------------------------

 -------------------------------
 water interaction with atom S12
 -------------------------------
 Symbolic Z-matrix:
 Charge =  0 Multiplicity = 1

 SCF Done:  E(RHF) =  -1154.67471446     A.U. after   15 cycles
 SCF Done:  E(RHF) =  -1154.67471525     A.U. after    6 cycles
 SCF Done:  E(RHF) =  -1154.67471659     A.U. after    7 cycles
 SCF Done:  E(RHF) =  -1154.67471833     A.U. after    8 cycles
 SCF Done:  E(RHF) =  -1154.67471890     A.U. after    8 cycles
 Optimization completed.
    -- Stationary point found.

                         Z-Matrix orientation:
 ---------------------------------------------------------------------
 Center     Atomic      Atomic             Coordinates (Angstroms)
 Number     Number       Type             X           Y           Z
 ---------------------------------------------------------------------
      1          9           0       -1.969300    2.053680    0.000070
      2          6           0       -1.222250    0.944230    0.000030
      3          6           0        0.140030    1.057400   -0.000020
      4          6           0        0.927950   -0.123640   -0.000080
      5          6           0        2.414660   -0.018650   -0.000010
      6          9           0        3.007080   -1.234610   -0.000560
      7          9           0        2.858290    0.654480   -1.086020
      8          9           0        2.858270    0.653500    1.086650
      9          6           0        0.306540   -1.341490   -0.000090
     10          7           0       -1.054170   -1.389970   -0.000060
     11          6           0       -1.930500   -0.312100    0.000000
     12         16           0       -3.570980   -0.506610    0.000030
     13          1           0        0.596860    2.043100   -0.000020
     14          1           0        0.831760   -2.288990   -0.000150
     15          1           0       -1.521480   -2.296390   -0.000090
     16         -1           0       -3.688724    0.486434    0.000069
     17         -1           0       -2.695680    0.604178    0.000051
     18          1           0       -6.601549   -0.865941    0.000085
     19         -1           0       -6.719293    0.127103    0.000124
     20          8           0       -7.552090   -0.978646    0.000103
     21          1           0       -7.790429   -1.006869   -0.926520
 ---------------------------------------------------------------------

 Alpha  occ. eigenvalues --  -91.91103 -26.37062 -26.36123 -26.36109 -26.33839
 Alpha  occ. eigenvalues --  -20.54269 -15.69306 -11.54441 -11.38530 -11.37629
 Alpha  occ. eigenvalues --  -11.36547 -11.31709 -11.30771  -8.92220  -6.60561
 Alpha  occ. eigenvalues --   -6.60280  -6.60160  -1.74302  -1.65305  -1.65092
 Alpha  occ. eigenvalues --   -1.64610  -1.36068  -1.32430  -1.17552  -1.12569
 Alpha  occ. eigenvalues --   -1.03410  -0.97594  -0.93007  -0.88778  -0.85179
 Alpha  occ. eigenvalues --   -0.83938  -0.83535  -0.77399  -0.76253  -0.74240
 Alpha  occ. eigenvalues --   -0.72478  -0.71842  -0.71693  -0.70686  -0.68956
 Alpha  occ. eigenvalues --   -0.67720  -0.67715  -0.66290  -0.64382  -0.62989
 Alpha  occ. eigenvalues --   -0.61158  -0.59780  -0.55471  -0.53338  -0.48063
 Alpha  occ. eigenvalues --   -0.46970  -0.43774  -0.34833  -0.31619
 Alpha virt. eigenvalues --    0.03949   0.08298   0.16827   0.20130   0.24165
 Alpha virt. eigenvalues --    0.25342   0.26119   0.27207   0.29692   0.33329
 Alpha virt. eigenvalues --    0.34259   0.37066   0.39642   0.40424   0.42521

 Mulliken atomic charges:
              1
     1  F   -0.359264
     2  C    0.403177
     3  C   -0.170067
     4  C   -0.300068
     5  C    1.208571
     6  F   -0.383085
     7  F   -0.372695
     8  F   -0.372468
     9  C    0.172858
    10  N   -0.778617
    11  C    0.181463
    12  S   -0.247242
    13  H    0.283071
    14  H    0.290108
    15  H    0.443318
    16  H    0.454348
    17  O   -0.882697
    18  H    0.429289
 Sum of Mulliken atomic charges =   0.00000

 Dipole moment (field-independent basis, Debye):
    X=              5.4247    Y=             -2.4066    Z=             -1.7116  Tot=              6.1765
 Quadrupole moment (field-independent basis, Debye-Ang):
   XX=           -126.7303   YY=            -72.0647   ZZ=            -80.2718
   XY=             -0.6698   XZ=             13.7452   YZ=              1.7743

 Normal termination of Gaussian 09 at Fri Sep 24 08:21:43 2021.
