 Gaussian 16, Revision C.02,
 Gaussian 16:  ES64L-G16RevC.02  7-Dec-2021

 ---------------------------------------------------------
 #MP2/6-31G* SCF=Tight Opt=(ModRedun, MaxCycle=20 ) NoSymm
 ---------------------------------------------------------

 --------
 MolName:
 --------
 Symbolic Z-matrix:
 Charge =  0 Multiplicity = 1

 SCF Done:  E(RHF) =  -661.279433017     A.U. after   16 cycles
 E2 =    -0.2037434633D+01 EUMP2 =    -0.66331686765024D+03
 SCF Done:  E(RHF) =  -661.296345651     A.U. after   15 cycles
 E2 =    -0.2033248251D+01 EUMP2 =    -0.66332959390131D+03
 SCF Done:  E(RHF) =  -661.296185204     A.U. after   15 cycles
 E2 =    -0.2034243593D+01 EUMP2 =    -0.66333042879739D+03
 SCF Done:  E(RHF) =  -661.283538905     A.U. after   17 cycles
 E2 =    -0.2036895521D+01 EUMP2 =    -0.66332043442601D+03
 SCF Done:  E(RHF) =  -661.296337419     A.U. after   13 cycles
 E2 =    -0.2035028245D+01 EUMP2 =    -0.66333136566316D+03
 SCF Done:  E(RHF) =  -661.296472632     A.U. after   12 cycles
 E2 =    -0.2034983928D+01 EUMP2 =    -0.66333145656087D+03
 SCF Done:  E(RHF) =  -661.296774885     A.U. after   11 cycles
 E2 =    -0.2034695130D+01 EUMP2 =    -0.66333147001489D+03
 SCF Done:  E(RHF) =  -661.296832092     A.U. after   10 cycles
 E2 =    -0.2034639383D+01 EUMP2 =    -0.66333147147520D+03
 Optimization completed.
    -- Stationary point found.

                          Input orientation:
 ---------------------------------------------------------------------
 Center     Atomic      Atomic             Coordinates (Angstroms)
 Number     Number       Type             X           Y           Z
 ---------------------------------------------------------------------
      1          8           0       -3.514217   -1.339280   -0.522933
      2          7           0       -3.109576   -0.184319   -0.287237
      3          8           0       -3.856477    0.812797   -0.254871
      4          6           0       -1.687795   -0.020091   -0.025809
      5          6           0       -1.285573    1.266228    0.226054
      6          7           0       -0.060904    1.699491    0.573174
      7          6           0        1.221510    1.015269    0.452286
      8          1           0        1.893174    1.558224    1.132940
      9          6           0        1.836712    1.040595   -0.943972
     10          6           0        3.244679    0.437569   -0.871991
     11          6           0        3.242336   -0.963955   -0.255146
     12          6           0        2.531620   -0.992249    1.099749
     13          6           0        1.111265   -0.436506    0.958670
     14          1           0        0.588475   -0.432434    1.925530
     15          7           0        0.411680   -1.312179    0.020918
     16          6           0       -0.846745   -1.180827   -0.244838
     17          1           0       -2.064421    2.023063    0.255427
     18          1           0        0.005448    2.704726    0.693556
     19          1           0        1.200546    0.465877   -1.625921
     20          1           0        1.876219    2.071646   -1.317633
     21          1           0        3.687148    0.409677   -1.874372
     22          1           0        3.880115    1.101663   -0.268902
     23          1           0        2.724891   -1.657415   -0.925681
     24          1           0        4.272519   -1.323325   -0.146901
     25          1           0        2.472415   -2.018935    1.475507
     26          1           0        3.087405   -0.401200    1.840985
     27          1           0       -1.299459   -1.980119   -0.831596
 ---------------------------------------------------------------------

 Alpha  occ. eigenvalues --  -20.59298 -20.58958 -15.84773 -15.63998 -15.55819
 Alpha  occ. eigenvalues --  -11.34964 -11.29609 -11.29541 -11.28714 -11.27108
 Alpha  occ. eigenvalues --  -11.23930 -11.23317 -11.22629 -11.22115  -1.57179
 Alpha  occ. eigenvalues --   -1.36768  -1.30822  -1.22751  -1.14762  -1.09810
 Alpha  occ. eigenvalues --   -1.02803  -1.01400  -0.94452  -0.89700  -0.85679
 Alpha  occ. eigenvalues --   -0.82428  -0.78532  -0.77384  -0.75013  -0.71768
 Alpha  occ. eigenvalues --   -0.69758  -0.69486  -0.67945  -0.64766  -0.63882
 Alpha  occ. eigenvalues --   -0.62428  -0.60121  -0.57871  -0.56863  -0.55122
 Alpha  occ. eigenvalues --   -0.54536  -0.50792  -0.50397  -0.48727  -0.48158
 Alpha  occ. eigenvalues --   -0.47414  -0.46273  -0.45986  -0.43731  -0.41960
 Alpha  occ. eigenvalues --   -0.39069  -0.33718
 Alpha virt. eigenvalues --    0.07230   0.11574   0.17409   0.21956   0.24144
 Alpha virt. eigenvalues --    0.25812   0.27247   0.28658   0.29118   0.29524
 Alpha virt. eigenvalues --    0.30688   0.31808   0.32084   0.32812   0.33736

 Mulliken charges:
               1
     1  O   -0.466887
     2  N    0.493627
     3  O   -0.503237
     4  C    0.005286
     5  C    0.180979
     6  N   -0.765980
     7  C    0.043021
     8  H    0.182830
     9  C   -0.305272
    10  C   -0.327271
    11  C   -0.322487
    12  C   -0.304512
    13  C   -0.023655
    14  H    0.196166
    15  N   -0.525905
    16  C    0.120542
    17  H    0.294796
    18  H    0.399893
    19  H    0.190569
    20  H    0.159991
    21  H    0.175157
    22  H    0.150214
    23  H    0.199802
    24  H    0.164827
    25  H    0.186635
    26  H    0.150037
    27  H    0.250836
 Sum of Mulliken charges =  -0.00000

 Dipole moment (field-independent basis, Debye):
    X=              5.4578    Y=              4.6325    Z=              1.3961  Tot=              7.2936
 Quadrupole moment (field-independent basis, Debye-Ang):
   XX=           -105.6549   YY=            -79.0486   ZZ=            -82.0477
   XY=             -1.0761   XZ=             -1.9662   YZ=              1.3257

 Normal termination of Gaussian 16 at Sun Jul  2 17:39:35 2023.
