 Gaussian 16, Revision C.02,
 Gaussian 16:  ES64L-G16RevC.02  7-Dec-2021

 ---------------------------------------------------------
 #MP2/6-31G* SCF=Tight Opt=(ModRedun, MaxCycle=20 ) NoSymm
 ---------------------------------------------------------

 --------
 MolName:
 --------
 Symbolic Z-matrix:
 Charge =  0 Multiplicity = 1

 SCF Done:  E(RHF) =  -661.282034700     A.U. after   16 cycles
 E2 =    -0.2037161200D+01 EUMP2 =    -0.66331919589967D+03
 SCF Done:  E(RHF) =  -661.298909088     A.U. after   14 cycles
 E2 =    -0.2032706563D+01 EUMP2 =    -0.66333161565092D+03
 SCF Done:  E(RHF) =  -661.299169589     A.U. after   15 cycles
 E2 =    -0.2033565796D+01 EUMP2 =    -0.66333273538552D+03
 SCF Done:  E(RHF) =  -661.286753039     A.U. after   17 cycles
 E2 =    -0.2036240375D+01 EUMP2 =    -0.66332299341399D+03
 SCF Done:  E(RHF) =  -661.299052590     A.U. after   14 cycles
 E2 =    -0.2034663061D+01 EUMP2 =    -0.66333371565010D+03
 SCF Done:  E(RHF) =  -661.299118603     A.U. after   12 cycles
 E2 =    -0.2034688108D+01 EUMP2 =    -0.66333380671108D+03
 SCF Done:  E(RHF) =  -661.299552992     A.U. after   12 cycles
 E2 =    -0.2034291580D+01 EUMP2 =    -0.66333384457138D+03
 SCF Done:  E(RHF) =  -661.299638488     A.U. after   11 cycles
 E2 =    -0.2034209258D+01 EUMP2 =    -0.66333384774533D+03
 SCF Done:  E(RHF) =  -661.299646750     A.U. after   10 cycles
 E2 =    -0.2034201289D+01 EUMP2 =    -0.66333384803909D+03
 Optimization completed.
    -- Stationary point found.

                          Input orientation:
 ---------------------------------------------------------------------
 Center     Atomic      Atomic             Coordinates (Angstroms)
 Number     Number       Type             X           Y           Z
 ---------------------------------------------------------------------
      1          8           0       -3.514917   -1.363557   -0.446665
      2          7           0       -3.118966   -0.207440   -0.201608
      3          8           0       -3.881395    0.773000   -0.097083
      4          6           0       -1.688296   -0.023570   -0.016433
      5          6           0       -1.294832    1.262964    0.248593
      6          7           0       -0.057417    1.726656    0.481274
      7          6           0        1.214038    1.019639    0.407772
      8          1           0        1.874710    1.554036    1.106434
      9          6           0        1.874126    1.038934   -0.969139
     10          6           0        3.277883    0.433642   -0.851585
     11          6           0        3.252226   -0.965768   -0.230829
     12          6           0        2.498809   -0.985858    1.100832
     13          6           0        1.082831   -0.431490    0.911741
     14          1           0        0.533260   -0.419522    1.865028
     15          7           0        0.410273   -1.316561   -0.035343
     16          6           0       -0.842901   -1.161822   -0.315611
     17          1           0       -2.084203    2.004879    0.331957
     18          1           0        0.003583    2.725029    0.645293
     19          1           0        1.258622    0.463471   -1.668962
     20          1           0        1.927054    2.068717   -1.344236
     21          1           0        3.751207    0.401497   -1.839587
     22          1           0        3.895896    1.098025   -0.231009
     23          1           0        2.754243   -1.660032   -0.914943
     24          1           0        4.277271   -1.327784   -0.088176
     25          1           0        2.426563   -2.010317    1.480371
     26          1           0        3.031537   -0.391677    1.856217
     27          1           0       -1.300185   -1.940113   -0.926285
 ---------------------------------------------------------------------

 Alpha  occ. eigenvalues --  -20.59236 -20.58901 -15.84725 -15.64146 -15.55919
 Alpha  occ. eigenvalues --  -11.35010 -11.29595 -11.29551 -11.28631 -11.27116
 Alpha  occ. eigenvalues --  -11.23839 -11.23263 -11.22655 -11.22096  -1.57122
 Alpha  occ. eigenvalues --   -1.36710  -1.30952  -1.22900  -1.14737  -1.09815
 Alpha  occ. eigenvalues --   -1.02819  -1.01363  -0.94477  -0.89699  -0.85636
 Alpha  occ. eigenvalues --   -0.82443  -0.78604  -0.77396  -0.75146  -0.71962
 Alpha  occ. eigenvalues --   -0.69737  -0.69445  -0.67879  -0.64830  -0.63834
 Alpha  occ. eigenvalues --   -0.62396  -0.60201  -0.57806  -0.56926  -0.55089
 Alpha  occ. eigenvalues --   -0.54584  -0.50780  -0.50263  -0.48673  -0.48126
 Alpha  occ. eigenvalues --   -0.47377  -0.46195  -0.46024  -0.43687  -0.41818
 Alpha  occ. eigenvalues --   -0.39447  -0.33733
 Alpha virt. eigenvalues --    0.07436   0.11725   0.17343   0.21902   0.24144
 Alpha virt. eigenvalues --    0.25743   0.27236   0.28696   0.29085   0.29566
 Alpha virt. eigenvalues --    0.30699   0.31798   0.32063   0.32808   0.33828

 Mulliken charges:
               1
     1  O   -0.467228
     2  N    0.492606
     3  O   -0.504187
     4  C    0.000033
     5  C    0.189605
     6  N   -0.778004
     7  C    0.054644
     8  H    0.181568
     9  C   -0.303376
    10  C   -0.327565
    11  C   -0.321991
    12  C   -0.305695
    13  C   -0.030459
    14  H    0.192932
    15  N   -0.519989
    16  C    0.120765
    17  H    0.295300
    18  H    0.403744
    19  H    0.190380
    20  H    0.160375
    21  H    0.174884
    22  H    0.149786
    23  H    0.200011
    24  H    0.164657
    25  H    0.186944
    26  H    0.150193
    27  H    0.250066
 Sum of Mulliken charges =  -0.00000

 Dipole moment (field-independent basis, Debye):
    X=              5.4554    Y=              4.7456    Z=              1.3218  Tot=              7.3504
 Quadrupole moment (field-independent basis, Debye-Ang):
   XX=           -106.0293   YY=            -79.0461   ZZ=            -81.7512
   XY=             -1.4159   XZ=             -1.0360   YZ=              1.5276

 Normal termination of Gaussian 16 at Sun Jul  2 17:22:13 2023.
