 Gaussian 16, Revision C.02,
 Gaussian 16:  ES64L-G16RevC.02  7-Dec-2021

 ---------------------------------------------------------
 #MP2/6-31G* SCF=Tight Opt=(ModRedun, MaxCycle=20 ) NoSymm
 ---------------------------------------------------------

 --------
 MolName:
 --------
 Symbolic Z-matrix:
 Charge =  0 Multiplicity = 1

 SCF Done:  E(RHF) =  -661.281224500     A.U. after   16 cycles
 E2 =    -0.2037255069D+01 EUMP2 =    -0.66331847956868D+03
 SCF Done:  E(RHF) =  -661.298420476     A.U. after   15 cycles
 E2 =    -0.2032662704D+01 EUMP2 =    -0.66333108317977D+03
 SCF Done:  E(RHF) =  -661.298973775     A.U. after   15 cycles
 E2 =    -0.2033497708D+01 EUMP2 =    -0.66333247148297D+03
 SCF Done:  E(RHF) =  -661.289034934     A.U. after   17 cycles
 E2 =    -0.2036618136D+01 EUMP2 =    -0.66332565307044D+03
 SCF Done:  E(RHF) =  -661.299257774     A.U. after   14 cycles
 E2 =    -0.2035054645D+01 EUMP2 =    -0.66333431241922D+03
 SCF Done:  E(RHF) =  -661.299902252     A.U. after   12 cycles
 E2 =    -0.2034676882D+01 EUMP2 =    -0.66333457913462D+03
 SCF Done:  E(RHF) =  -661.300407612     A.U. after   12 cycles
 E2 =    -0.2034231434D+01 EUMP2 =    -0.66333463904632D+03
 SCF Done:  E(RHF) =  -661.300427537     A.U. after   12 cycles
 E2 =    -0.2034220528D+01 EUMP2 =    -0.66333464806435D+03
 SCF Done:  E(RHF) =  -661.300381238     A.U. after   10 cycles
 E2 =    -0.2034268094D+01 EUMP2 =    -0.66333464933160D+03
 Optimization completed.
    -- Stationary point found.

                          Input orientation:
 ---------------------------------------------------------------------
 Center     Atomic      Atomic             Coordinates (Angstroms)
 Number     Number       Type             X           Y           Z
 ---------------------------------------------------------------------
      1          8           0       -3.506615   -1.390434   -0.371948
      2          7           0       -3.121104   -0.232464   -0.118715
      3          8           0       -3.895442    0.728465    0.055403
      4          6           0       -1.686791   -0.023910   -0.009422
      5          6           0       -1.301590    1.260606    0.275465
      6          7           0       -0.057331    1.750065    0.386445
      7          6           0        1.205612    1.023899    0.359434
      8          1           0        1.853403    1.553002    1.074706
      9          6           0        1.909051    1.035019   -0.996447
     10          6           0        3.307459    0.428424   -0.832429
     11          6           0        3.259503   -0.967684   -0.205825
     12          6           0        2.464523   -0.978239    1.101669
     13          6           0        1.054847   -0.424608    0.865271
     14          1           0        0.478296   -0.403399    1.803675
     15          7           0        0.408315   -1.317862   -0.091105
     16          6           0       -0.838966   -1.137994   -0.386477
     17          1           0       -2.096345    1.987556    0.418996
     18          1           0        0.001783    2.735162    0.615849
     19          1           0        1.314885    0.457599   -1.712703
     20          1           0        1.974991    2.062989   -1.374063
     21          1           0        3.811392    0.390330   -1.804966
     22          1           0        3.907245    1.094732   -0.196179
     23          1           0        2.781850   -1.664476   -0.901678
     24          1           0        4.278673   -1.331153   -0.028665
     25          1           0        2.379119   -2.000118    1.485621
     26          1           0        2.974456   -0.380288    1.869650
     27          1           0       -1.300229   -1.892219   -1.023540
 ---------------------------------------------------------------------

 Alpha  occ. eigenvalues --  -20.59236 -20.58902 -15.84722 -15.64136 -15.56112
 Alpha  occ. eigenvalues --  -11.35018 -11.29624 -11.29558 -11.28625 -11.27133
 Alpha  occ. eigenvalues --  -11.23728 -11.23208 -11.22692 -11.22089  -1.57120
 Alpha  occ. eigenvalues --   -1.36712  -1.30976  -1.23065  -1.14703  -1.09819
 Alpha  occ. eigenvalues --   -1.02805  -1.01309  -0.94481  -0.89683  -0.85566
 Alpha  occ. eigenvalues --   -0.82448  -0.78609  -0.77411  -0.75202  -0.72019
 Alpha  occ. eigenvalues --   -0.69773  -0.69440  -0.67821  -0.64892  -0.63778
 Alpha  occ. eigenvalues --   -0.62367  -0.60279  -0.57700  -0.57002  -0.55077
 Alpha  occ. eigenvalues --   -0.54582  -0.50762  -0.50109  -0.48656  -0.48103
 Alpha  occ. eigenvalues --   -0.47372  -0.46146  -0.46045  -0.43678  -0.41695
 Alpha  occ. eigenvalues --   -0.39848  -0.33830
 Alpha virt. eigenvalues --    0.07466   0.11802   0.17308   0.21848   0.24112
 Alpha virt. eigenvalues --    0.25663   0.27134   0.28694   0.29044   0.29636
 Alpha virt. eigenvalues --    0.30683   0.31799   0.32035   0.32767   0.33951

 Mulliken charges:
               1
     1  O   -0.467260
     2  N    0.491363
     3  O   -0.504085
     4  C    0.000420
     5  C    0.188930
     6  N   -0.780305
     7  C    0.060241
     8  H    0.180078
     9  C   -0.301420
    10  C   -0.327949
    11  C   -0.321486
    12  C   -0.306669
    13  C   -0.037164
    14  H    0.189958
    15  N   -0.511199
    16  C    0.120050
    17  H    0.295292
    18  H    0.404866
    19  H    0.190205
    20  H    0.161378
    21  H    0.174651
    22  H    0.149360
    23  H    0.199943
    24  H    0.164541
    25  H    0.187061
    26  H    0.150347
    27  H    0.248854
 Sum of Mulliken charges =  -0.00000

 Dipole moment (field-independent basis, Debye):
    X=              5.4162    Y=              4.7961    Z=              1.2829  Tot=              7.3474
 Quadrupole moment (field-independent basis, Debye-Ang):
   XX=           -106.1385   YY=            -79.2270   ZZ=            -81.4998
   XY=             -1.7671   XZ=             -0.1375   YZ=              1.8555

 Normal termination of Gaussian 16 at Sun Jul  2 16:21:48 2023.
