 Gaussian 16, Revision C.02,
 Gaussian 16:  ES64L-G16RevC.02  7-Dec-2021

 ---------------------------------------------------------
 #MP2/6-31G* SCF=Tight Opt=(ModRedun, MaxCycle=20 ) NoSymm
 ---------------------------------------------------------

 --------
 MolName:
 --------
 Symbolic Z-matrix:
 Charge =  0 Multiplicity = 1

 SCF Done:  E(RHF) =  -661.277597287     A.U. after   16 cycles
 E2 =    -0.2037696934D+01 EUMP2 =    -0.66331529422065D+03
 SCF Done:  E(RHF) =  -661.295109328     A.U. after   15 cycles
 E2 =    -0.2033133418D+01 EUMP2 =    -0.66332824274622D+03
 SCF Done:  E(RHF) =  -661.296112356     A.U. after   15 cycles
 E2 =    -0.2034013749D+01 EUMP2 =    -0.66333012610499D+03
 SCF Done:  E(RHF) =  -661.289524296     A.U. after   17 cycles
 E2 =    -0.2036678963D+01 EUMP2 =    -0.66332620325925D+03
 SCF Done:  E(RHF) =  -661.297397682     A.U. after   14 cycles
 E2 =    -0.2035702195D+01 EUMP2 =    -0.66333309987676D+03
 SCF Done:  E(RHF) =  -661.298301577     A.U. after   13 cycles
 E2 =    -0.2035327475D+01 EUMP2 =    -0.66333362905163D+03
 SCF Done:  E(RHF) =  -661.298918415     A.U. after   13 cycles
 E2 =    -0.2034832548D+01 EUMP2 =    -0.66333375096298D+03
 SCF Done:  E(RHF) =  -661.298882062     A.U. after   12 cycles
 E2 =    -0.2034881642D+01 EUMP2 =    -0.66333376370354D+03
 SCF Done:  E(RHF) =  -661.298836476     A.U. after   10 cycles
 E2 =    -0.2034929320D+01 EUMP2 =    -0.66333376579620D+03
 Optimization completed.
    -- Stationary point found.

                          Input orientation:
 ---------------------------------------------------------------------
 Center     Atomic      Atomic             Coordinates (Angstroms)
 Number     Number       Type             X           Y           Z
 ---------------------------------------------------------------------
      1          8           0       -3.486928   -1.421946   -0.294963
      2          7           0       -3.115345   -0.260457   -0.036457
      3          8           0       -3.899268    0.676762    0.208004
      4          6           0       -1.683005   -0.019341   -0.008174
      5          6           0       -1.304953    1.260374    0.302281
      6          7           0       -0.060925    1.770789    0.287528
      7          6           0        1.195615    1.027547    0.309266
      8          1           0        1.826833    1.552071    1.043103
      9          6           0        1.944716    1.031026   -1.021726
     10          6           0        3.335775    0.423307   -0.807858
     11          6           0        3.263522   -0.969662   -0.176724
     12          6           0        2.424317   -0.971579    1.103101
     13          6           0        1.023639   -0.417208    0.817073
     14          1           0        0.418279   -0.387397    1.737995
     15          7           0        0.405126   -1.316394   -0.151530
     16          6           0       -0.834593   -1.106854   -0.464302
     17          1           0       -2.098918    1.972308    0.510797
     18          1           0        0.003356    2.739836    0.577382
     19          1           0        1.374450    0.452155   -1.755796
     20          1           0        2.024746    2.057375   -1.400703
     21          1           0        3.872539    0.379490   -1.762398
     22          1           0        3.915096    1.091353   -0.154712
     23          1           0        2.808635   -1.668783   -0.885306
     24          1           0        4.275085   -1.334569    0.037280
     25          1           0        2.324118   -1.991179    1.489766
     26          1           0        2.909607   -0.370965    1.884775
     27          1           0       -1.300528   -1.833056   -1.129699
 ---------------------------------------------------------------------

 Alpha  occ. eigenvalues --  -20.59312 -20.58976 -15.84774 -15.63946 -15.56419
 Alpha  occ. eigenvalues --  -11.34985 -11.29646 -11.29616 -11.28713 -11.27156
 Alpha  occ. eigenvalues --  -11.23614 -11.23157 -11.22734 -11.22094  -1.57183
 Alpha  occ. eigenvalues --   -1.36786  -1.30889  -1.23264  -1.14666  -1.09830
 Alpha  occ. eigenvalues --   -1.02759  -1.01242  -0.94467  -0.89655  -0.85483
 Alpha  occ. eigenvalues --   -0.82437  -0.78529  -0.77447  -0.75179  -0.71920
 Alpha  occ. eigenvalues --   -0.69875  -0.69478  -0.67781  -0.64959  -0.63699
 Alpha  occ. eigenvalues --   -0.62358  -0.60389  -0.57559  -0.57075  -0.55054
 Alpha  occ. eigenvalues --   -0.54570  -0.50737  -0.49933  -0.48688  -0.48090
 Alpha  occ. eigenvalues --   -0.47411  -0.46165  -0.46014  -0.43713  -0.41610
 Alpha  occ. eigenvalues --   -0.40309  -0.34022
 Alpha virt. eigenvalues --    0.07294   0.11785   0.17338   0.21787   0.23995
 Alpha virt. eigenvalues --    0.25506   0.27024   0.28616   0.29016   0.29712
 Alpha virt. eigenvalues --    0.30613   0.31819   0.32020   0.32696   0.34076

 Mulliken charges:
               1
     1  O   -0.466900
     2  N    0.489776
     3  O   -0.502630
     4  C    0.007292
     5  C    0.177436
     6  N   -0.769620
     7  C    0.057708
     8  H    0.178643
     9  C   -0.299587
    10  C   -0.328349
    11  C   -0.321015
    12  C   -0.307353
    13  C   -0.044482
    14  H    0.187870
    15  N   -0.499205
    16  C    0.118500
    17  H    0.294674
    18  H    0.402272
    19  H    0.189992
    20  H    0.162487
    21  H    0.174455
    22  H    0.149067
    23  H    0.199568
    24  H    0.164503
    25  H    0.187006
    26  H    0.150595
    27  H    0.247298
 Sum of Mulliken charges =  -0.00000

 Dipole moment (field-independent basis, Debye):
    X=              5.3365    Y=              4.7786    Z=              1.2276  Tot=              7.2678
 Quadrupole moment (field-independent basis, Debye-Ang):
   XX=           -105.9524   YY=            -79.5921   ZZ=            -81.3510
   XY=             -2.1224   XZ=              0.7879   YZ=              2.1633

 Normal termination of Gaussian 16 at Sun Jul  2 16:42:24 2023.
