 Gaussian 16, Revision C.02,
 Gaussian 16:  ES64L-G16RevC.02  7-Dec-2021

 ---------------------------------------------------------
 #MP2/6-31G* SCF=Tight Opt=(ModRedun, MaxCycle=20 ) NoSymm
 ---------------------------------------------------------

 --------
 MolName:
 --------
 Symbolic Z-matrix:
 Charge =  0 Multiplicity = 1

 SCF Done:  E(RHF) =  -661.271228943     A.U. after   16 cycles
 E2 =    -0.2038562971D+01 EUMP2 =    -0.66330979191400D+03
 SCF Done:  E(RHF) =  -661.288978202     A.U. after   15 cycles
 E2 =    -0.2034187011D+01 EUMP2 =    -0.66332316521363D+03
 SCF Done:  E(RHF) =  -661.290715561     A.U. after   15 cycles
 E2 =    -0.2035162113D+01 EUMP2 =    -0.66332587767404D+03
 SCF Done:  E(RHF) =  -661.285941980     A.U. after   17 cycles
 E2 =    -0.2037682014D+01 EUMP2 =    -0.66332362399386D+03
 SCF Done:  E(RHF) =  -661.292915387     A.U. after   14 cycles
 E2 =    -0.2036930818D+01 EUMP2 =    -0.66332984620493D+03
 SCF Done:  E(RHF) =  -661.294069004     A.U. after   13 cycles
 E2 =    -0.2036569344D+01 EUMP2 =    -0.66333063834860D+03
 SCF Done:  E(RHF) =  -661.294596273     A.U. after   13 cycles
 E2 =    -0.2036195549D+01 EUMP2 =    -0.66333079182138D+03
 SCF Done:  E(RHF) =  -661.294634692     A.U. after   12 cycles
 E2 =    -0.2036175438D+01 EUMP2 =    -0.66333081012947D+03
 SCF Done:  E(RHF) =  -661.294600562     A.U. after   10 cycles
 E2 =    -0.2036211124D+01 EUMP2 =    -0.66333081168691D+03
 Optimization completed.
    -- Stationary point found.

                          Input orientation:
 ---------------------------------------------------------------------
 Center     Atomic      Atomic             Coordinates (Angstroms)
 Number     Number       Type             X           Y           Z
 ---------------------------------------------------------------------
      1          8           0       -3.451176   -1.462655   -0.205368
      2          7           0       -3.099270   -0.295553    0.056411
      3          8           0       -3.891104    0.611618    0.375596
      4          6           0       -1.677190   -0.010203   -0.006164
      5          6           0       -1.304838    1.263505    0.330140
      6          7           0       -0.068457    1.786054    0.183624
      7          6           0        1.183811    1.029841    0.256527
      8          1           0        1.794428    1.550336    1.011098
      9          6           0        1.980363    1.026776   -1.045614
     10          6           0        3.361810    0.418346   -0.778847
     11          6           0        3.263429   -0.971766   -0.144952
     12          6           0        2.377668   -0.966228    1.103373
     13          6           0        0.988562   -0.409841    0.766134
     14          1           0        0.354364   -0.372776    1.667717
     15          7           0        0.400773   -1.312949   -0.217629
     16          6           0       -0.829566   -1.066355   -0.548095
     17          1           0       -2.090041    1.960916    0.608585
     18          1           0        0.009992    2.746002    0.501945
     19          1           0        1.436617    0.446938   -1.798596
     20          1           0        2.075431    2.051831   -1.424611
     21          1           0        3.933254    0.369267   -1.712753
     22          1           0        3.918273    1.087914   -0.107666
     23          1           0        2.833887   -1.672928   -0.867205
     24          1           0        4.265451   -1.338075    0.108036
     25          1           0        2.261329   -1.984064    1.490570
     26          1           0        2.836380   -0.364217    1.899786
     27          1           0       -1.302160   -1.757733   -1.245022
 ---------------------------------------------------------------------

 Alpha  occ. eigenvalues --  -20.59430 -20.59087 -15.84854 -15.63590 -15.56841
 Alpha  occ. eigenvalues --  -11.34920 -11.29814 -11.29580 -11.28863 -11.27166
 Alpha  occ. eigenvalues --  -11.23517 -11.23117 -11.22770 -11.22108  -1.57272
 Alpha  occ. eigenvalues --   -1.36894  -1.30725  -1.23483  -1.14611  -1.09830
 Alpha  occ. eigenvalues --   -1.02690  -1.01163  -0.94439  -0.89591  -0.85412
 Alpha  occ. eigenvalues --   -0.82396  -0.78391  -0.77506  -0.75063  -0.71660
 Alpha  occ. eigenvalues --   -0.70015  -0.69539  -0.67768  -0.65029  -0.63589
 Alpha  occ. eigenvalues --   -0.62399  -0.60542  -0.57436  -0.57090  -0.55000
 Alpha  occ. eigenvalues --   -0.54566  -0.50699  -0.49711  -0.48737  -0.48068
 Alpha  occ. eigenvalues --   -0.47473  -0.46203  -0.45964  -0.43767  -0.41558
 Alpha  occ. eigenvalues --   -0.40831  -0.34263
 Alpha virt. eigenvalues --    0.06966   0.11686   0.17464   0.21672   0.23723
 Alpha virt. eigenvalues --    0.25271   0.26970   0.28455   0.29006   0.29757
 Alpha virt. eigenvalues --    0.30466   0.31880   0.32025   0.32619   0.34158

 Mulliken charges:
               1
     1  O   -0.466450
     2  N    0.487893
     3  O   -0.500244
     4  C    0.018819
     5  C    0.159334
     6  N   -0.751956
     7  C    0.050522
     8  H    0.177300
     9  C   -0.298131
    10  C   -0.328711
    11  C   -0.320548
    12  C   -0.307671
    13  C   -0.053295
    14  H    0.187500
    15  N   -0.483928
    16  C    0.116597
    17  H    0.293533
    18  H    0.396976
    19  H    0.189883
    20  H    0.163103
    21  H    0.174292
    22  H    0.148949
    23  H    0.198876
    24  H    0.164522
    25  H    0.186734
    26  H    0.150910
    27  H    0.245190
 Sum of Mulliken charges =  -0.00000

 Dipole moment (field-independent basis, Debye):
    X=              5.2279    Y=              4.7418    Z=              1.1019  Tot=              7.1435
 Quadrupole moment (field-independent basis, Debye-Ang):
   XX=           -105.5027   YY=            -80.0180   ZZ=            -81.3683
   XY=             -2.5224   XZ=              1.8175   YZ=              2.3436

 Normal termination of Gaussian 16 at Sun Jul  2 17:03:10 2023.
