 Gaussian 16, Revision C.02,
 Gaussian 16:  ES64L-G16RevC.02  7-Dec-2021

 ---------------------------------------------------------
 #MP2/6-31G* SCF=Tight Opt=(ModRedun, MaxCycle=20 ) NoSymm
 ---------------------------------------------------------

 --------
 MolName:
 --------
 Symbolic Z-matrix:
 Charge =  0 Multiplicity = 1

 SCF Done:  E(RHF) =  -661.271754008     A.U. after   16 cycles
 E2 =    -0.2038229010D+01 EUMP2 =    -0.66330998301783D+03
 SCF Done:  E(RHF) =  -661.290699941     A.U. after   15 cycles
 E2 =    -0.2034192925D+01 EUMP2 =    -0.66332489286577D+03
 SCF Done:  E(RHF) =  -661.291713067     A.U. after   15 cycles
 E2 =    -0.2035164115D+01 EUMP2 =    -0.66332687718198D+03
 SCF Done:  E(RHF) =  -661.280890461     A.U. after   17 cycles
 E2 =    -0.2038147957D+01 EUMP2 =    -0.66331903841827D+03
 SCF Done:  E(RHF) =  -661.292143750     A.U. after   14 cycles
 E2 =    -0.2036158595D+01 EUMP2 =    -0.66332830234519D+03
 SCF Done:  E(RHF) =  -661.292848868     A.U. after   13 cycles
 E2 =    -0.2035636835D+01 EUMP2 =    -0.66332848570302D+03
 SCF Done:  E(RHF) =  -661.293245825     A.U. after   11 cycles
 E2 =    -0.2035257296D+01 EUMP2 =    -0.66332850312053D+03
 SCF Done:  E(RHF) =  -661.293270673     A.U. after   10 cycles
 E2 =    -0.2035235167D+01 EUMP2 =    -0.66332850584035D+03
 SCF Done:  E(RHF) =  -661.293265146     A.U. after    9 cycles
 E2 =    -0.2035241064D+01 EUMP2 =    -0.66332850620978D+03
 SCF Done:  E(RHF) =  -661.293265567     A.U. after    8 cycles
 E2 =    -0.2035240882D+01 EUMP2 =    -0.66332850644933D+03
 Optimization completed.
    -- Stationary point found.

                          Input orientation:
 ---------------------------------------------------------------------
 Center     Atomic      Atomic             Coordinates (Angstroms)
 Number     Number       Type             X           Y           Z
 ---------------------------------------------------------------------
      1          8           0       -3.507651   -1.324363   -0.577480
      2          7           0       -3.097340   -0.169125   -0.354098
      3          8           0       -3.830198    0.838391   -0.380787
      4          6           0       -1.685267   -0.015083   -0.035195
      5          6           0       -1.277797    1.270166    0.211614
      6          7           0       -0.065743    1.675566    0.639973
      7          6           0        1.227073    1.013284    0.481355
      8          1           0        1.905969    1.567657    1.144823
      9          6           0        1.804754    1.038333   -0.929321
     10          6           0        3.215397    0.437969   -0.891954
     11          6           0        3.232703   -0.962898   -0.273252
     12          6           0        2.557380   -0.993470    1.099680
     13          6           0        1.135017   -0.436560    0.996243
     14          1           0        0.633601   -0.435248    1.973092
     15          7           0        0.413300   -1.305357    0.067927
     16          6           0       -0.848854   -1.191917   -0.187212
     17          1           0       -2.045729    2.038316    0.205256
     18          1           0        0.004200    2.682695    0.749514
     19          1           0        1.152807    0.461303   -1.594264
     20          1           0        1.832568    2.068998   -1.305180
     21          1           0        3.632382    0.409497   -1.905183
     22          1           0        3.864373    1.104473   -0.306235
     23          1           0        2.700106   -1.658475   -0.929755
     24          1           0        4.266364   -1.319254   -0.191829
     25          1           0        2.508895   -2.020744    1.475397
     26          1           0        3.131647   -0.402564    1.826911
     27          1           0       -1.298956   -2.008590   -0.752007
 ---------------------------------------------------------------------

 Alpha  occ. eigenvalues --  -20.59370 -20.59021 -15.84823 -15.63789 -15.55776
 Alpha  occ. eigenvalues --  -11.34900 -11.29684 -11.29488 -11.28803 -11.27101
 Alpha  occ. eigenvalues --  -11.23975 -11.23349 -11.22606 -11.22130  -1.57238
 Alpha  occ. eigenvalues --   -1.36831  -1.30667  -1.22635  -1.14764  -1.09788
 Alpha  occ. eigenvalues --   -1.02779  -1.01408  -0.94418  -0.89686  -0.85690
 Alpha  occ. eigenvalues --   -0.82417  -0.78454  -0.77369  -0.74859  -0.71537
 Alpha  occ. eigenvalues --   -0.69793  -0.69523  -0.67999  -0.64712  -0.63933
 Alpha  occ. eigenvalues --   -0.62456  -0.60052  -0.57904  -0.56816  -0.55174
 Alpha  occ. eigenvalues --   -0.54444  -0.50802  -0.50473  -0.48777  -0.48181
 Alpha  occ. eigenvalues --   -0.47452  -0.46332  -0.45948  -0.43775  -0.42076
 Alpha  occ. eigenvalues --   -0.38756  -0.33725
 Alpha virt. eigenvalues --    0.06998   0.11427   0.17474   0.22001   0.24145
 Alpha virt. eigenvalues --    0.25882   0.27159   0.28642   0.29137   0.29523
 Alpha virt. eigenvalues --    0.30675   0.31823   0.32084   0.32795   0.33697

 Mulliken charges:
               1
     1  O   -0.466438
     2  N    0.494105
     3  O   -0.502057
     4  C    0.011712
     5  C    0.171031
     6  N   -0.755154
     7  C    0.033045
     8  H    0.183481
     9  C   -0.306802
    10  C   -0.327131
    11  C   -0.322941
    12  C   -0.303429
    13  C   -0.017949
    14  H    0.198704
    15  N   -0.528981
    16  C    0.119921
    17  H    0.294069
    18  H    0.396147
    19  H    0.190844
    20  H    0.160225
    21  H    0.175391
    22  H    0.150506
    23  H    0.199502
    24  H    0.164980
    25  H    0.186240
    26  H    0.149820
    27  H    0.251161
 Sum of Mulliken charges =  -0.00000

 Dipole moment (field-independent basis, Debye):
    X=              5.4367    Y=              4.5286    Z=              1.4846  Tot=              7.2298
 Quadrupole moment (field-independent basis, Debye-Ang):
   XX=           -105.2276   YY=            -79.1099   ZZ=            -82.2815
   XY=             -0.8552   XZ=             -2.6942   YZ=              1.3160

 Normal termination of Gaussian 16 at Sat Jul  1 03:42:51 2023.
